LAMMPS (24 Aug 2020)
Reading data file ...
  orthogonal box = (0.0000000 0.0000000 0.0000000) to (19.950000 19.950000 119.70000)
  2 by 2 by 10 MPI processor grid
  reading atoms ...
  4322 atoms
  read_data CPU = 0.011 seconds
Neighbor list info ...
  update every 1 steps, delay 0 steps, check yes
  max neighbors/atom: 2000, page size: 100000
  master list distance cutoff = 4.55
  ghost atom cutoff = 4.55
  binsize = 2.275, bins = 9 9 53
  2 neighbor lists, perpetual/occasional/extra = 2 0 0
  (1) pair meam, perpetual
      attributes: full, newton on
      pair build: full/bin/atomonly
      stencil: full/bin/3d
      bin: standard
  (2) pair meam, perpetual, half/full from (1)
      attributes: half, newton on
      pair build: halffull/newton
      stencil: none
      bin: none
Setting up cg style minimization ...
  Unit style    : metal
  Current step  : 0
WARNING: Energy due to 1 extra global DOFs will be included in minimizer energies
Per MPI rank memory allocation (min/avg/max) = 9.847 | 9.863 | 9.886 Mbytes
Step Temp E_pair E_mol TotEng Press Volume 
       0            0   -16602.405            0   -16602.405    280290.67    47640.899 
    1000            0   -18851.586            0   -18851.586   -13.674332     49058.01 
Loop time of 3.2912 on 40 procs for 1000 steps with 4322 atoms

90.6% CPU use with 40 MPI tasks x no OpenMP threads

Minimization stats:
  Stopping criterion = max iterations
  Energy initial, next-to-last, final = 
     -16602.4052199757  -18851.5474803191  -18851.5855676672
  Force two-norm initial, final = 25017.61553365413 2.4013301825649984
  Force max component initial, final = 25003.424183833355 1.2438946833636135
  Final line search alpha, max atom move = 0.0004783063557701311 0.0005949627329614911
  Iterations, force evaluations = 1000 1671

MPI task timing breakdown:
Section |  min time  |  avg time  |  max time  |%varavg| %total
---------------------------------------------------------------
Pair    | 2.3967     | 2.4606     | 2.5566     |   2.3 | 74.76
Neigh   | 0.35119    | 0.40235    | 0.45181    |   3.7 | 12.23
Comm    | 0.20903    | 0.28358    | 0.35549    |   7.4 |  8.62
Output  | 3.7192e-05 | 3.9424e-05 | 5.6378e-05 |   0.0 |  0.00
Modify  | 0          | 0          | 0          |   0.0 |  0.00
Other   |            | 0.1447     |            |       |  4.40

Nlocal:        108.050 ave         124 max          89 min
Histogram: 1 3 3 1 9 3 12 4 1 3
Nghost:        642.150 ave         677 max         608 min
Histogram: 1 3 4 8 7 1 7 6 2 1
Neighs:        1573.00 ave        1839 max        1341 min
Histogram: 5 0 2 9 7 7 4 2 1 3
FullNghs:      3146.00 ave        3715 max        2649 min
Histogram: 4 1 1 10 9 4 6 2 1 2

Total # of neighbors = 125840
Ave neighs/atom = 29.116150
Neighbor list builds = 1657
Dangerous builds = 1643
Setting up Verlet run ...
  Unit style    : metal
  Current step  : 1000
  Time step     : 0.001
Per MPI rank memory allocation (min/avg/max) = 8.727 | 8.742 | 8.764 Mbytes
Step Temp Lx Ly Lz Press Pxx Pyy Pzz KinEng PotEng TotEng 
    1000           20    20.145879    20.145879    120.87528    229.53939   -13352.849   -12097.152    26138.618    11.170662   -18851.586   -18840.415 
    2000    23.882794    20.145879    20.145879    120.87528   -22.975778   -10308.152   -10398.113    20637.337    13.339331   -18853.332   -18839.993 
    3000    25.339091    20.145879    20.145879    120.87528   -24.442432   -9686.0082   -10059.334    19672.015    14.152721   -18854.472    -18840.32 
    4000    26.980639    20.145879    20.145879    120.87528   -116.00196   -9718.7379   -9679.0391    19049.771    15.069579   -18854.848   -18839.778 
    5000     29.05283    20.145879    20.145879    120.87528   -171.88045   -9905.9415   -9173.7889    18564.089    16.226967   -18854.649   -18838.422 
    6000    31.234956    20.145879    20.145879    120.87528    8.9112294   -9519.1986   -9043.6336    18589.566    17.445756   -18854.093   -18836.647 
    7000    35.357128    20.145879    20.145879    120.87528   -81.428588   -9161.4675   -9109.1376    18026.319    19.748126   -18854.197   -18834.449 
    8000    36.886716    20.145879    20.145879    120.87528    236.21959    -8759.198   -8424.4409    17892.298    20.602451   -18852.565   -18831.963 
    9000    39.288578    20.145879    20.145879    120.87528    429.42276   -7933.1351   -8404.8417    17626.245    21.943971   -18851.098   -18829.154 
   10000    43.028201    20.145879    20.145879    120.87528    670.77869   -7755.7099   -7775.6025    17543.649    24.032674   -18850.116   -18826.083 
   11000    45.849868    20.145879    20.145879    120.87528    873.15453    -7557.848   -7520.8158    17698.127    25.608668   -18848.362   -18822.753 
   12000    48.722626    20.145879    20.145879    120.87528    1409.7771   -7276.3007   -6903.9888    18409.621    27.213199   -18846.381   -18819.168 
   13000    52.059104    20.145879    20.145879    120.87528    1646.7003    -6730.217   -6433.3681    18103.686    29.076732   -18844.438   -18815.362 
   14000    56.991795    20.145879    20.145879    120.87528    1951.4548   -6207.0873   -6666.0897    18727.541    31.831803   -18843.195   -18811.363 
   15000    61.676962    20.145879    20.145879    120.87528    2087.0235   -6529.1572   -5893.4394    18683.667    34.448624   -18841.791   -18807.343 
   16000    66.150789    20.145879    20.145879    120.87528     2289.998   -5961.7577    -5506.023    18337.775    36.947404   -18840.289   -18803.342 
   17000    70.718443    20.145879    20.145879    120.87528    2456.3767   -5838.8375    -5409.164    18617.132     39.49859   -18838.933   -18799.434 
   18000     76.94872    20.145879    20.145879    120.87528    2394.3833   -4994.9283   -4105.2014     16283.28    42.978406   -18838.823   -18795.845 
   19000    79.851489    20.145879    20.145879    120.87528    2941.9656   -4414.0809   -3440.7429    16680.721    44.599699   -18837.899     -18793.3 
   20000    81.081206    20.145879    20.145879    120.87528    3123.0133   -4152.6715   -2809.1386     16330.85    45.286536   -18836.486   -18791.199 
   21000    84.143418    20.145879    20.145879    120.87528    3335.1385    -3596.898   -2814.7217    16417.035    46.996883   -18835.654   -18788.657 
   22000    86.293391    20.145879    20.145879    120.87528    3521.1696   -2999.0365   -2412.6141    15975.159    48.197714   -18833.636   -18785.439 
   23000    90.257904    20.145879    20.145879    120.87528    3811.2569   -2725.7284   -2687.7686    16847.268    50.412026   -18832.379   -18781.967 
   24000    92.802791    20.145879    20.145879    120.87528    3793.5214   -2937.4812   -2593.1319    16911.177     51.83343   -18830.217   -18778.383 
   25000    97.284403    20.145879    20.145879    120.87528    4292.3562   -2397.5962   -1642.0585    16916.723    54.336558   -18829.098   -18774.762 
   26000    100.55038    20.145879    20.145879    120.87528    4525.1898   -2478.6831   -362.09946    16416.352    56.160715   -18827.317   -18771.156 
   27000    105.63363    20.145879    20.145879    120.87528    4908.4066   -1715.8879    73.511396    16367.596    58.999876   -18827.435   -18768.435 
   28000      109.461    20.145879    20.145879    120.87528     4780.255    -1676.933   -648.14652    16665.844    61.137588   -18827.337     -18766.2 
   29000    110.71591    20.145879    20.145879    120.87528    4850.9894   -606.51633   -642.58046    15802.065    61.838498    -18825.58   -18763.742 
   30000     114.1873    20.145879    20.145879    120.87528    5105.7528   -398.01446   -448.01328    16163.286    63.777383   -18824.441   -18760.663 
   31000    115.75037    20.145879    20.145879    120.87528    5494.1302   -414.29492    590.08105    16306.604    64.650409    -18821.77    -18757.12 
   32000    119.63425    20.145879    20.145879    120.87528    5522.7774   -474.92533    489.40509    16553.853    66.819686   -18820.228   -18753.408 
   33000    122.74938    20.145879    20.145879    120.87528    5955.6519    521.21672    858.85445    16486.885    68.559592   -18818.266   -18749.706 
   34000    125.56024    20.145879    20.145879    120.87528    5944.9741   -56.346645    724.77568    17166.493    70.129546   -18816.255   -18746.126 
   35000    130.05898    20.145879    20.145879    120.87528     6748.166     1001.657     1150.702    18092.139    72.642245   -18815.187   -18742.545 
   36000    133.60926    20.145879    20.145879    120.87528    6119.7827    404.01077    819.64935    17135.688    74.625193   -18813.654   -18739.029 
   37000    135.07239    20.145879    20.145879    120.87528    6991.7929    1331.6009    1821.1744    17822.603    75.442397   -18810.952   -18735.509 
   38000    139.81335    20.145879    20.145879    120.87528    7031.9112    1289.7973    2373.6781    17432.258    78.090379   -18810.108   -18732.018 
   39000    146.52298    20.145879    20.145879    120.87528    7258.3035    1839.9191    2283.8457    17651.146     81.83793   -18810.363   -18728.525 
   40000    146.60618    20.145879    20.145879    120.87528    7349.1763    1561.0043    2442.6419    18043.883      81.8844   -18807.258   -18725.374 
   41000    148.46637    20.145879    20.145879    120.87528    7547.0999    2604.8515    1933.0718    18103.376    82.923378   -18805.392   -18722.469 
Loop time of 69.5657 on 40 procs for 40000 steps with 4322 atoms

Performance: 49.680 ns/day, 0.483 hours/ns, 574.996 timesteps/s
89.5% CPU use with 40 MPI tasks x no OpenMP threads

MPI task timing breakdown:
Section |  min time  |  avg time  |  max time  |%varavg| %total
---------------------------------------------------------------
Pair    | 57.803     | 59.326     | 62.384     |  13.3 | 85.28
Neigh   | 2.6769     | 3.0703     | 3.4278     |   9.3 |  4.41
Comm    | 2.9969     | 5.0845     | 7.6634     |  45.4 |  7.31
Output  | 0.002156   | 0.0021852  | 0.0023358  |   0.1 |  0.00
Modify  | 0.43029    | 1.7605     | 3.1397     |  76.5 |  2.53
Other   |            | 0.322      |            |       |  0.46

Nlocal:        108.050 ave         122 max          96 min
Histogram: 3 5 4 8 4 2 5 1 6 2
Nghost:        641.200 ave         671 max         614 min
Histogram: 3 4 4 4 6 5 4 5 3 2
Neighs:        1584.05 ave        1865 max        1317 min
Histogram: 1 3 5 7 7 5 5 3 3 1
FullNghs:      3168.10 ave        3716 max        2653 min
Histogram: 1 2 5 8 6 8 2 3 4 1

Total # of neighbors = 126724
Ave neighs/atom = 29.320685
Neighbor list builds = 12485
Dangerous builds = 0
Initial Length, L0: 120.875275521426
737 atoms in group grest
705 atoms in group gmove
2880 atoms in group mid
3617 atoms in group tempstat
Setting up Verlet run ...
  Unit style    : metal
  Current step  : 0
  Time step     : 0.001
ERROR on proc 6: Substitution for illegal variable strain1 (../input.cpp:545)
ERROR on proc 7: Substitution for illegal variable strain1 (../input.cpp:545)
ERROR on proc 8: Substitution for illegal variable strain1 (../input.cpp:545)
ERROR on proc 9: Substitution for illegal variable strain1 (../input.cpp:545)
ERROR on proc 10: Substitution for illegal variable strain1 (../input.cpp:545)
ERROR on proc 11: Substitution for illegal variable strain1 (../input.cpp:545)
ERROR on proc 12: Substitution for illegal variable strain1 (../input.cpp:545)
ERROR on proc 13: Substitution for illegal variable strain1 (../input.cpp:545)
ERROR on proc 14: Substitution for illegal variable strain1 (../input.cpp:545)
ERROR on proc 15: Substitution for illegal variable strain1 (../input.cpp:545)
ERROR on proc 16: Substitution for illegal variable strain1 (../input.cpp:545)
ERROR on proc 17: Substitution for illegal variable strain1 (../input.cpp:545)
ERROR on proc 18: Substitution for illegal variable strain1 (../input.cpp:545)
ERROR on proc 19: Substitution for illegal variable strain1 (../input.cpp:545)
ERROR on proc 20: Substitution for illegal variable strain1 (../input.cpp:545)
ERROR on proc 21: Substitution for illegal variable strain1 (../input.cpp:545)
ERROR on proc 22: Substitution for illegal variable strain1 (../input.cpp:545)
ERROR on proc 23: Substitution for illegal variable strain1 (../input.cpp:545)
ERROR on proc 24: Substitution for illegal variable strain1 (../input.cpp:545)
ERROR on proc 25: Substitution for illegal variable strain1 (../input.cpp:545)
ERROR on proc 26: Substitution for illegal variable strain1 (../input.cpp:545)
ERROR on proc 27: Substitution for illegal variable strain1 (../input.cpp:545)
ERROR on proc 28: Substitution for illegal variable strain1 (../input.cpp:545)
ERROR on proc 29: Substitution for illegal variable strain1 (../input.cpp:545)
ERROR on proc 30: Substitution for illegal variable strain1 (../input.cpp:545)
ERROR on proc 31: Substitution for illegal variable strain1 (../input.cpp:545)
ERROR on proc 32: Substitution for illegal variable strain1 (../input.cpp:545)
--------------------------------------------------------------------------
MPI_ABORT was invoked on rank 12 in communicator MPI_COMM_WORLD
with errorcode 1.

NOTE: invoking MPI_ABORT causes Open MPI to kill all MPI processes.
You may or may not see output from other processes, depending on
exactly when Open MPI kills them.
--------------------------------------------------------------------------
ERROR on proc 33: Substitution for illegal variable strain1 (../input.cpp:545)
ERROR on proc 34: Substitution for illegal variable strain1 (../input.cpp:545)
ERROR on proc 35: Substitution for illegal variable strain1 (../input.cpp:545)
ERROR on proc 36: Substitution for illegal variable strain1 (../input.cpp:545)
ERROR on proc 37: Substitution for illegal variable strain1 (../input.cpp:545)
ERROR on proc 38: Substitution for illegal variable strain1 (../input.cpp:545)
ERROR on proc 39: Substitution for illegal variable strain1 (../input.cpp:545)
ERROR on proc 0: Substitution for illegal variable strain1 (../input.cpp:545)
ERROR on proc 1: Substitution for illegal variable strain1 (../input.cpp:545)
ERROR on proc 2: Substitution for illegal variable strain1 (../input.cpp:545)
ERROR on proc 3: Substitution for illegal variable strain1 (../input.cpp:545)
ERROR on proc 4: Substitution for illegal variable strain1 (../input.cpp:545)
ERROR on proc 5: Substitution for illegal variable strain1 (../input.cpp:545)
[CMMDLab:17897] [[31612,0],0] ORTE_ERROR_LOG: Out of resource in file util/show_help.c at line 501
[CMMDLab:17897] PMIX ERROR: UNREACHABLE in file server/pmix_server.c at line 2193
[CMMDLab:17897] PMIX ERROR: UNREACHABLE in file server/pmix_server.c at line 2193
[CMMDLab:17897] PMIX ERROR: UNREACHABLE in file server/pmix_server.c at line 2193
[CMMDLab:17897] PMIX ERROR: UNREACHABLE in file server/pmix_server.c at line 2193
[CMMDLab:17897] PMIX ERROR: UNREACHABLE in file server/pmix_server.c at line 2193
[CMMDLab:17897] PMIX ERROR: UNREACHABLE in file server/pmix_server.c at line 2193
[CMMDLab:17897] PMIX ERROR: UNREACHABLE in file server/pmix_server.c at line 2193
[CMMDLab:17897] PMIX ERROR: UNREACHABLE in file server/pmix_server.c at line 2193
[CMMDLab:17897] PMIX ERROR: UNREACHABLE in file server/pmix_server.c at line 2193
[CMMDLab:17897] PMIX ERROR: UNREACHABLE in file server/pmix_server.c at line 2193
[CMMDLab:17897] PMIX ERROR: UNREACHABLE in file server/pmix_server.c at line 2193
[CMMDLab:17897] PMIX ERROR: UNREACHABLE in file server/pmix_server.c at line 2193
[CMMDLab:17897] PMIX ERROR: UNREACHABLE in file server/pmix_server.c at line 2193
[CMMDLab:17897] PMIX ERROR: UNREACHABLE in file server/pmix_server.c at line 2193
[CMMDLab:17897] PMIX ERROR: UNREACHABLE in file server/pmix_server.c at line 2193
[CMMDLab:17897] PMIX ERROR: UNREACHABLE in file server/pmix_server.c at line 2193
[CMMDLab:17897] PMIX ERROR: UNREACHABLE in file server/pmix_server.c at line 2193
[CMMDLab:17897] PMIX ERROR: UNREACHABLE in file server/pmix_server.c at line 2193
[CMMDLab:17897] PMIX ERROR: UNREACHABLE in file server/pmix_server.c at line 2193
[CMMDLab:17897] PMIX ERROR: UNREACHABLE in file server/pmix_server.c at line 2193
[CMMDLab:17897] PMIX ERROR: UNREACHABLE in file server/pmix_server.c at line 2193
[CMMDLab:17897] PMIX ERROR: UNREACHABLE in file server/pmix_server.c at line 2193
[CMMDLab:17897] PMIX ERROR: UNREACHABLE in file server/pmix_server.c at line 2193
[CMMDLab:17897] PMIX ERROR: UNREACHABLE in file server/pmix_server.c at line 2193
[CMMDLab:17897] PMIX ERROR: UNREACHABLE in file server/pmix_server.c at line 2193
[CMMDLab:17897] PMIX ERROR: UNREACHABLE in file server/pmix_server.c at line 2193
[CMMDLab:17897] PMIX ERROR: UNREACHABLE in file server/pmix_server.c at line 2193
[CMMDLab:17897] PMIX ERROR: UNREACHABLE in file server/pmix_server.c at line 2193
[CMMDLab:17897] PMIX ERROR: UNREACHABLE in file server/pmix_server.c at line 2193
[CMMDLab:17897] PMIX ERROR: UNREACHABLE in file server/pmix_server.c at line 2193
[CMMDLab:17897] PMIX ERROR: UNREACHABLE in file server/pmix_server.c at line 2193
[CMMDLab:17897] PMIX ERROR: UNREACHABLE in file server/pmix_server.c at line 2193
[CMMDLab:17897] PMIX ERROR: UNREACHABLE in file server/pmix_server.c at line 2193
[CMMDLab:17897] PMIX ERROR: UNREACHABLE in file server/pmix_server.c at line 2193
[CMMDLab:17897] PMIX ERROR: UNREACHABLE in file server/pmix_server.c at line 2193
[CMMDLab:17897] PMIX ERROR: UNREACHABLE in file server/pmix_server.c at line 2193
[CMMDLab:17897] 38 more processes have sent help message help-mpi-api.txt / mpi-abort
[CMMDLab:17897] Set MCA parameter "orte_base_help_aggregate" to 0 to see all help / error messages
LAMMPS (24 Aug 2020)
Reading data file ...
  orthogonal box = (0.0000000 0.0000000 0.0000000) to (19.950000 19.950000 119.70000)
  2 by 2 by 10 MPI processor grid
  reading atoms ...
  4322 atoms
  read_data CPU = 0.012 seconds
Neighbor list info ...
  update every 1 steps, delay 0 steps, check yes
  max neighbors/atom: 2000, page size: 100000
  master list distance cutoff = 4.55
  ghost atom cutoff = 4.55
  binsize = 2.275, bins = 9 9 53
  2 neighbor lists, perpetual/occasional/extra = 2 0 0
  (1) pair meam, perpetual
      attributes: full, newton on
      pair build: full/bin/atomonly
      stencil: full/bin/3d
      bin: standard
  (2) pair meam, perpetual, half/full from (1)
      attributes: half, newton on
      pair build: halffull/newton
      stencil: none
      bin: none
Setting up cg style minimization ...
  Unit style    : metal
  Current step  : 0
WARNING: Energy due to 1 extra global DOFs will be included in minimizer energies
Per MPI rank memory allocation (min/avg/max) = 9.847 | 9.863 | 9.886 Mbytes
Step Temp E_pair E_mol TotEng Press Volume 
       0            0   -16602.405            0   -16602.405    280290.67    47640.899 
    1000            0   -18851.586            0   -18851.586   -13.674332     49058.01 
Loop time of 3.29189 on 40 procs for 1000 steps with 4322 atoms

90.3% CPU use with 40 MPI tasks x no OpenMP threads

Minimization stats:
  Stopping criterion = max iterations
  Energy initial, next-to-last, final = 
     -16602.4052199757  -18851.5474803191  -18851.5855676672
  Force two-norm initial, final = 25017.61553365413 2.4013301825649984
  Force max component initial, final = 25003.424183833355 1.2438946833636135
  Final line search alpha, max atom move = 0.0004783063557701311 0.0005949627329614911
  Iterations, force evaluations = 1000 1671

MPI task timing breakdown:
Section |  min time  |  avg time  |  max time  |%varavg| %total
---------------------------------------------------------------
Pair    | 2.3994     | 2.467      | 2.5483     |   2.5 | 74.94
Neigh   | 0.35123    | 0.40078    | 0.46029    |   3.7 | 12.17
Comm    | 0.1879     | 0.28006    | 0.36381    |   7.5 |  8.51
Output  | 3.6262e-05 | 3.7992e-05 | 5.5827e-05 |   0.0 |  0.00
Modify  | 0          | 0          | 0          |   0.0 |  0.00
Other   |            | 0.1441     |            |       |  4.38

Nlocal:        108.050 ave         124 max          89 min
Histogram: 1 3 3 1 9 3 12 4 1 3
Nghost:        642.150 ave         677 max         608 min
Histogram: 1 3 4 8 7 1 7 6 2 1
Neighs:        1573.00 ave        1839 max        1341 min
Histogram: 5 0 2 9 7 7 4 2 1 3
FullNghs:      3146.00 ave        3715 max        2649 min
Histogram: 4 1 1 10 9 4 6 2 1 2

Total # of neighbors = 125840
Ave neighs/atom = 29.116150
Neighbor list builds = 1657
Dangerous builds = 1643
Setting up Verlet run ...
  Unit style    : metal
  Current step  : 1000
  Time step     : 0.001
Per MPI rank memory allocation (min/avg/max) = 8.727 | 8.742 | 8.764 Mbytes
Step Temp Lx Ly Lz Press Pxx Pyy Pzz KinEng PotEng TotEng 
    1000           20    20.145879    20.145879    120.87528    229.53939   -13352.849   -12097.152    26138.618    11.170662   -18851.586   -18840.415 
    2000    23.882794    20.145879    20.145879    120.87528   -22.975778   -10308.152   -10398.113    20637.337    13.339331   -18853.332   -18839.993 
    3000    25.339091    20.145879    20.145879    120.87528   -24.442432   -9686.0082   -10059.334    19672.015    14.152721   -18854.472    -18840.32 
    4000    26.980639    20.145879    20.145879    120.87528   -116.00196   -9718.7379   -9679.0391    19049.771    15.069579   -18854.848   -18839.778 
    5000     29.05283    20.145879    20.145879    120.87528   -171.88045   -9905.9415   -9173.7889    18564.089    16.226967   -18854.649   -18838.422 
    6000    31.234956    20.145879    20.145879    120.87528    8.9112294   -9519.1986   -9043.6336    18589.566    17.445756   -18854.093   -18836.647 
    7000    35.357128    20.145879    20.145879    120.87528   -81.428588   -9161.4675   -9109.1376    18026.319    19.748126   -18854.197   -18834.449 
LAMMPS (24 Aug 2020)
Reading data file ...
  orthogonal box = (0.0000000 0.0000000 0.0000000) to (19.950000 19.950000 119.70000)
  2 by 2 by 10 MPI processor grid
  reading atoms ...
  4322 atoms
  read_data CPU = 0.013 seconds
Neighbor list info ...
  update every 1 steps, delay 0 steps, check yes
  max neighbors/atom: 2000, page size: 100000
  master list distance cutoff = 4.55
  ghost atom cutoff = 4.55
  binsize = 2.275, bins = 9 9 53
  2 neighbor lists, perpetual/occasional/extra = 2 0 0
  (1) pair meam, perpetual
      attributes: full, newton on
      pair build: full/bin/atomonly
      stencil: full/bin/3d
      bin: standard
  (2) pair meam, perpetual, half/full from (1)
      attributes: half, newton on
      pair build: halffull/newton
      stencil: none
      bin: none
Setting up cg style minimization ...
  Unit style    : metal
  Current step  : 0
WARNING: Energy due to 1 extra global DOFs will be included in minimizer energies
Per MPI rank memory allocation (min/avg/max) = 9.847 | 9.863 | 9.886 Mbytes
Step Temp E_pair E_mol TotEng Press Volume 
       0            0   -16602.405            0   -16602.405    280290.67    47640.899 
    1000            0   -18851.586            0   -18851.586   -13.674332     49058.01 
Loop time of 3.29295 on 40 procs for 1000 steps with 4322 atoms

90.3% CPU use with 40 MPI tasks x no OpenMP threads

Minimization stats:
  Stopping criterion = max iterations
  Energy initial, next-to-last, final = 
     -16602.4052199757  -18851.5474803191  -18851.5855676672
  Force two-norm initial, final = 25017.61553365413 2.4013301825649984
  Force max component initial, final = 25003.424183833355 1.2438946833636135
  Final line search alpha, max atom move = 0.0004783063557701311 0.0005949627329614911
  Iterations, force evaluations = 1000 1671

MPI task timing breakdown:
Section |  min time  |  avg time  |  max time  |%varavg| %total
---------------------------------------------------------------
Pair    | 2.3888     | 2.4615     | 2.5434     |   2.4 | 74.75
Neigh   | 0.35226    | 0.40129    | 0.45362    |   3.9 | 12.19
Comm    | 0.2016     | 0.28219    | 0.35946    |   7.4 |  8.57
Output  | 3.9819e-05 | 4.099e-05  | 6.4139e-05 |   0.0 |  0.00
Modify  | 0          | 0          | 0          |   0.0 |  0.00
Other   |            | 0.1479     |            |       |  4.49

Nlocal:        108.050 ave         124 max          89 min
Histogram: 1 3 3 1 9 3 12 4 1 3
Nghost:        642.150 ave         677 max         608 min
Histogram: 1 3 4 8 7 1 7 6 2 1
Neighs:        1573.00 ave        1839 max        1341 min
Histogram: 5 0 2 9 7 7 4 2 1 3
FullNghs:      3146.00 ave        3715 max        2649 min
Histogram: 4 1 1 10 9 4 6 2 1 2

Total # of neighbors = 125840
Ave neighs/atom = 29.116150
Neighbor list builds = 1657
Dangerous builds = 1643
Setting up Verlet run ...
  Unit style    : metal
  Current step  : 1000
  Time step     : 0.001
Per MPI rank memory allocation (min/avg/max) = 8.727 | 8.742 | 8.764 Mbytes
Step Temp Lx Ly Lz Press Pxx Pyy Pzz KinEng PotEng TotEng 
    1000           20    20.145879    20.145879    120.87528    229.53939   -13352.849   -12097.152    26138.618    11.170662   -18851.586   -18840.415 
    2000    25.278831    20.145879    20.145879    120.87528    32.791377   -10071.258   -10335.056    20504.688    14.119063   -18852.894   -18838.775 
    3000    30.703662    20.145879    20.145879    120.87528    281.26367   -9172.7059   -9680.2004    19696.697    17.149011   -18852.255   -18835.106 
    4000    37.163404    20.145879    20.145879    120.87528    466.41609   -8610.4866   -8678.6467    18688.382    20.756991   -18850.486   -18829.729 
    5000    44.421992    20.145879    20.145879    120.87528    888.08169   -8169.9074   -8010.5439    18844.696    24.811152    -18847.41   -18822.599 
Loop time of 6.92145 on 40 procs for 4000 steps with 4322 atoms

Performance: 49.932 ns/day, 0.481 hours/ns, 577.913 timesteps/s
89.5% CPU use with 40 MPI tasks x no OpenMP threads

MPI task timing breakdown:
Section |  min time  |  avg time  |  max time  |%varavg| %total
---------------------------------------------------------------
Pair    | 5.7231     | 5.8899     | 6.2011     |   4.6 | 85.10
Neigh   | 0.26878    | 0.30681    | 0.34675    |   3.2 |  4.43
Comm    | 0.29826    | 0.51428    | 0.76979    |  15.6 |  7.43
Output  | 0.00022194 | 0.00022793 | 0.00024111 |   0.0 |  0.00
Modify  | 0.04805    | 0.17765    | 0.36324    |  24.8 |  2.57
Other   |            | 0.03261    |            |       |  0.47

Nlocal:        108.050 ave         126 max          93 min
Histogram: 2 1 2 13 10 1 4 4 2 1
Nghost:        641.550 ave         676 max         614 min
Histogram: 3 4 8 4 3 5 4 6 1 2
Neighs:        1577.08 ave        1869 max        1350 min
Histogram: 3 2 4 6 9 11 1 2 1 1
FullNghs:      3154.15 ave        3686 max        2649 min
Histogram: 1 3 3 5 7 9 7 3 0 2

Total # of neighbors = 126166
Ave neighs/atom = 29.191578
Neighbor list builds = 1258
Dangerous builds = 0
Initial Length, L0: 120.875275521426
737 atoms in group grest
705 atoms in group gmove
2880 atoms in group mid
3617 atoms in group tempstat
Setting up Verlet run ...
  Unit style    : metal
  Current step  : 0
  Time step     : 0.001
Per MPI rank memory allocation (min/avg/max) = 10.11 | 10.12 | 10.15 Mbytes
Step Temp v_p1 v_p5 v_p2 v_p3 v_p4 Press Volume KinEng PotEng TotEng 
       0    44.421992 -7.0539759e-16   -1.3040125   0.81699074   0.80105439   -1.8844696    888.08169     49058.01    24.811152    -18847.41   -18822.599 
    1000    96.136744       0.0001   -2.1350443   -201.24797   -302.31021   -195.51367    2330239.5    49062.916    53.695552    45440.632    45494.327 
    2000    206.13555       0.0002  -0.18716971   -345.51609   -395.08701   -368.99311      3698654    49067.822    115.13352    90010.838    90125.971 
    3000    322.40198       0.0003    4.5425893   -352.08603   -293.48961   -394.35432    3466433.2    49072.728    180.07217    79089.868     79269.94 
    4000    438.17153       0.0004   -4.0025622   -312.30526   -343.83275   -364.71528    3402844.3    49077.634     244.7333    81209.369    81454.102 
    5000    508.16556       0.0005   -6.1338241   -327.30493   -289.78656   -420.67668    3459227.2    49082.539    283.82728    80790.043     81073.87 
    6000    578.59505       0.0006    5.2265561   -444.83948    -508.7508   -572.16289    5085843.9    49087.445    323.16448    196540.44     196863.6 
    7000    576.54085       0.0007    5.0815857   -311.89662   -380.60088   -265.05472    3191840.7    49092.351    322.01714    74124.969    74446.986 
    8000    554.38316       0.0008  -0.31340751    -307.5059    -297.4837   -291.59537    2988616.6    49097.257    309.64134    72600.248    72909.889 
    9000    520.47511       0.0009   -5.2385942   -460.49436   -421.15422   -361.04301    4142305.3    49102.163    290.70257    121403.11    121693.81 
   10000    487.94086        0.001    4.0092301   -308.32137   -390.42302   -296.67197    3318054.5    49107.068    272.53111    77168.482    77441.013 
   11000    459.30916       0.0011  -0.65016883   -334.51027   -326.96868   -327.68878    3297225.8    49111.974    256.53936    78308.926    78565.466 
   12000    432.70397       0.0012    4.8543349   -297.50264   -333.19121   -478.87938    3698577.4     49116.88    241.67948    104470.97    104712.64 
   13000    415.72942       0.0013   -1.2309586    -271.6288   -444.80212    -273.0533    3298280.7    49121.786    232.19864    82346.397    82578.596 
LAMMPS (24 Aug 2020)
Reading data file ...
  orthogonal box = (0.0000000 0.0000000 0.0000000) to (19.950000 19.950000 119.70000)
  2 by 2 by 10 MPI processor grid
  reading atoms ...
  4322 atoms
  read_data CPU = 0.012 seconds
Neighbor list info ...
  update every 1 steps, delay 0 steps, check yes
  max neighbors/atom: 2000, page size: 100000
  master list distance cutoff = 4.55
  ghost atom cutoff = 4.55
  binsize = 2.275, bins = 9 9 53
  2 neighbor lists, perpetual/occasional/extra = 2 0 0
  (1) pair meam, perpetual
      attributes: full, newton on
      pair build: full/bin/atomonly
      stencil: full/bin/3d
      bin: standard
  (2) pair meam, perpetual, half/full from (1)
      attributes: half, newton on
      pair build: halffull/newton
      stencil: none
      bin: none
Setting up cg style minimization ...
  Unit style    : metal
  Current step  : 0
WARNING: Energy due to 1 extra global DOFs will be included in minimizer energies
Per MPI rank memory allocation (min/avg/max) = 9.847 | 9.863 | 9.886 Mbytes
Step Temp E_pair E_mol TotEng Press Volume 
       0            0   -16602.405            0   -16602.405    280290.67    47640.899 
    6968            0   -18861.988            0   -18861.988 -0.0033298059    49025.736 
Loop time of 26.6964 on 40 procs for 6968 steps with 4322 atoms

91.3% CPU use with 40 MPI tasks x no OpenMP threads

Minimization stats:
  Stopping criterion = energy tolerance
  Energy initial, next-to-last, final = 
     -16602.4052199757  -18861.9883727331  -18861.9883727331
  Force two-norm initial, final = 25017.61553365413 0.0008222515865493893
  Force max component initial, final = 25003.424183833355 0.000357318288788119
  Final line search alpha, max atom move = 0.4915103675990879 0.0001756256434721254
  Iterations, force evaluations = 6968 13614

MPI task timing breakdown:
Section |  min time  |  avg time  |  max time  |%varavg| %total
---------------------------------------------------------------
Pair    | 18.987     | 19.835     | 20.795     |  10.2 | 74.30
Neigh   | 2.6741     | 3.1545     | 3.6615     |  11.9 | 11.82
Comm    | 1.4767     | 2.3009     | 3.2176     |  30.2 |  8.62
Output  | 0          | 0          | 0          |   0.0 |  0.00
Modify  | 0          | 0          | 0          |   0.0 |  0.00
Other   |            | 1.406      |            |       |  5.27

Nlocal:        108.050 ave         124 max          93 min
Histogram: 3 1 3 7 7 8 3 4 1 3
Nghost:        641.150 ave         673 max         607 min
Histogram: 1 3 6 3 7 4 3 6 5 2
Neighs:        1572.20 ave        1855 max        1327 min
Histogram: 3 0 7 5 7 9 5 2 1 1
FullNghs:      3144.40 ave        3737 max        2623 min
Histogram: 2 1 4 6 7 10 7 1 1 1

Total # of neighbors = 125776
Ave neighs/atom = 29.101342
Neighbor list builds = 13081
Dangerous builds = 12805
Setting up Verlet run ...
  Unit style    : metal
  Current step  : 6968
  Time step     : 0.001
Per MPI rank memory allocation (min/avg/max) = 8.727 | 8.743 | 8.765 Mbytes
Step Temp Lx Ly Lz Press Pxx Pyy Pzz KinEng PotEng TotEng 
    6968           20     20.14146     20.14146    120.84876     243.3705   -11340.994   -10863.067    22934.173    11.170662   -18861.988   -18850.818 
    7000    5.7255322     20.14146     20.14146    120.84876    1076.2489   -10541.959   -10034.505    23805.211    3.1978991    -18854.01   -18850.812 
    8000    12.877956     20.14146     20.14146    120.84876     750.6965   -10826.766   -10092.749    23171.604    7.1927643   -18857.014   -18849.821 
    9000    14.914249     20.14146     20.14146    120.84876    884.24899   -10107.826   -9605.3849    22365.958    8.3301015   -18856.508   -18848.178 
   10000    17.394496     20.14146     20.14146    120.84876    971.34769   -9797.2797   -9968.3997    22679.722    9.7154013   -18855.783   -18846.068 
   11000    19.797157     20.14146     20.14146    120.84876    970.35598   -9773.7475   -9632.8908    22317.706    11.057367   -18854.572   -18843.515 
   12000    23.439519     20.14146     20.14146    120.84876    1138.2002   -9689.7627   -9230.7138    22335.077    13.091747   -18853.585   -18840.493 
   13000    27.584613     20.14146     20.14146    120.84876    1356.2053   -9222.8117   -8686.6675    21978.095    15.406919   -18852.338   -18836.931 
   14000    31.078271     20.14146     20.14146    120.84876    1812.9467   -8732.6267   -8071.6361    22243.103    17.358243   -18850.277   -18832.918 
   15000    38.176703     20.14146     20.14146    120.84876     1891.714   -7830.1962   -7242.1627    20747.501    21.322952   -18849.777   -18828.454 
   16000    43.216531     20.14146     20.14146    120.84876    2200.8169     -6926.64   -6453.6788     19982.77    24.137863   -18847.975   -18823.837 
   17000    49.945469     20.14146     20.14146    120.84876    2440.5429   -6295.7082   -5944.8554    19562.192    27.896197   -18847.242   -18819.346 
   18000    54.567606     20.14146     20.14146    120.84876    2718.9709   -5835.6468   -5124.6593    19117.219    30.477813    -18845.71   -18815.233 
   19000    59.121381     20.14146     20.14146    120.84876    2891.0738   -5838.5857   -4846.1803    19357.987    33.021247   -18844.652    -18811.63 
   20000    63.318997     20.14146     20.14146    120.84876    3040.5616        -4894   -4467.3809    18483.066    35.365755   -18843.851   -18808.485 
   21000    64.985194     20.14146     20.14146    120.84876    3356.9399   -5108.0809   -4104.3033    19283.204    36.296381   -18841.913   -18805.616 
   22000    68.162004     20.14146     20.14146    120.84876    3403.4512   -4286.3758   -3842.7053    18339.435    38.070734   -18840.968   -18802.897 
   23000    71.702016     20.14146     20.14146    120.84876    3616.9406    -3929.816   -3669.0225     18449.66    40.047948   -18840.051   -18800.003 
   24000    74.138903     20.14146     20.14146    120.84876      3897.14   -3407.7174     -2936.45    18035.587     41.40903   -18838.111   -18796.702 
   25000    77.297059     20.14146     20.14146    120.84876    4154.7106   -3339.0445   -2549.1945    18352.371    43.172965   -18836.458   -18793.285 
   26000    82.443808     20.14146     20.14146    120.84876    4153.4094   -2778.1219   -2377.9256    17616.276    46.047594   -18835.955   -18789.908 
   27000    84.741197     20.14146     20.14146    120.84876    4490.5501   -2682.7601   -2238.7913    18393.202    47.330762   -18834.306   -18786.976 
   28000    86.582158     20.14146     20.14146    120.84876     5247.101   -1612.6937    -1435.157    18789.154       48.359   -18832.254   -18783.895 
   29000    89.993017     20.14146     20.14146    120.84876    4885.1329   -2041.4873   -1286.5925    17983.478    50.264077   -18830.714    -18780.45 
   30000    94.759765     20.14146     20.14146    120.84876    5378.8507   -1087.5907   -1435.8959    18660.039    52.926464   -18829.948   -18777.021 
   31000    98.576849     20.14146     20.14146    120.84876    5420.9275   -936.09283   -716.55939    17915.435    55.058432   -18828.981   -18773.923 
   32000    101.68464     20.14146     20.14146    120.84876    5415.6882   -313.30475   -191.32622    16751.696    56.794236   -18827.762   -18770.968 
   33000    105.62111     20.14146     20.14146    120.84876    5742.6544   -1140.4152    755.60246    17612.776    58.992885   -18827.076   -18768.084 
   34000    108.41924     20.14146     20.14146    120.84876    5922.3733   -518.78467    139.97203    18145.933    60.555735   -18825.757   -18765.202 
   35000    109.68561     20.14146     20.14146    120.84876    6247.9364    159.45599    521.93932    18062.414    61.263043   -18823.279   -18762.016 
   36000    113.45789     20.14146     20.14146    120.84876    6661.2445    402.29781    515.14576     19066.29    63.369985   -18821.646   -18758.276 
   37000    117.21187     20.14146     20.14146    120.84876    6638.9652       475.87    879.80985    18561.216    65.466705   -18819.778   -18754.312 
   38000    121.36491     20.14146     20.14146    120.84876    6787.4971    1023.8816    1487.5025    17851.107    67.786321   -18818.337   -18750.551 
   39000    123.29366     20.14146     20.14146    120.84876    7313.1179    961.24266    2564.5966    18413.515     68.86359   -18816.288   -18747.425 
   40000    124.50627     20.14146     20.14146    120.84876      7569.63    1598.9492    2505.9631    18603.978     69.54087   -18814.084   -18744.543 
   41000    129.70355     20.14146     20.14146    120.84876    7648.3152    1774.2623     2440.166    18730.517    72.443724   -18813.724    -18741.28 
   42000    135.08485     20.14146     20.14146    120.84876    7802.0815    2270.0677    3164.6756    17971.501    75.449361   -18813.001   -18737.552 
   43000    136.16691     20.14146     20.14146    120.84876    8299.3339    2947.5721    3062.7193     18887.71    76.053725    -18810.42   -18734.367 
   44000    142.03775     20.14146     20.14146    120.84876    8390.6867    2990.9645    3396.4765    18784.619    79.332781   -18810.999   -18731.666 
   45000     142.2512     20.14146     20.14146    120.84876    8347.4805    2734.3159    3342.7711    18965.355       79.452   -18808.104   -18728.652 
   46000    146.65315     20.14146     20.14146    120.84876    8765.3378    3634.5214    3750.9737    18910.518    81.910635    -18806.88    -18724.97 
   46968    149.33651     20.14146     20.14146    120.84876      9135.76    3679.7581    4539.9897    19187.532    83.409384   -18804.483   -18721.074 
Loop time of 70.2986 on 40 procs for 40000 steps with 4322 atoms

Performance: 49.162 ns/day, 0.488 hours/ns, 569.001 timesteps/s
89.9% CPU use with 40 MPI tasks x no OpenMP threads

MPI task timing breakdown:
Section |  min time  |  avg time  |  max time  |%varavg| %total
---------------------------------------------------------------
Pair    | 57.263     | 59.599     | 63.083     |  17.0 | 84.78
Neigh   | 2.6978     | 3.0658     | 3.4738     |   9.9 |  4.36
Comm    | 3.0854     | 5.2917     | 7.9272     |  52.5 |  7.53
Output  | 0.0022192  | 0.0022395  | 0.0023944  |   0.1 |  0.00
Modify  | 0.34701    | 2.0185     | 3.8744     |  93.5 |  2.87
Other   |            | 0.3218     |            |       |  0.46

Nlocal:        108.050 ave         123 max          94 min
Histogram: 1 3 5 9 6 2 4 5 3 2
Nghost:        639.750 ave         668 max         606 min
Histogram: 1 4 3 3 5 8 2 8 4 2
Neighs:        1584.65 ave        1876 max        1326 min
Histogram: 1 2 4 8 6 11 2 5 0 1
FullNghs:      3169.30 ave        3725 max        2665 min
Histogram: 2 1 5 7 6 9 4 2 3 1

Total # of neighbors = 126772
Ave neighs/atom = 29.331791
Neighbor list builds = 12457
Dangerous builds = 0
Initial Length, L0: 120.848762886492
737 atoms in group grest
705 atoms in group gmove
2880 atoms in group mid
3617 atoms in group tempstat
WARNING: One or more atoms are time integrated more than once (../modify.cpp:285)
Setting up Verlet run ...
  Unit style    : metal
  Current step  : 0
  Time step     : 0.001
Per MPI rank memory allocation (min/avg/max) = 10.48 | 10.5 | 10.52 Mbytes
Step c_midT Lz v_p1 v_p5 v_p2 v_p3 v_p4 Press Volume KinEng PotEng TotEng 
       0    147.56453    120.84876 2.4694332e-15    1.6419834  -0.36797581  -0.45399897   -1.9187532      9135.76    49025.736    83.409384   -18804.483   -18721.074 
    1000    155.30531    120.86085       0.0001   -0.2758774  -0.38496277  -0.41796626   -1.9408277    9145.8558    49030.639    71.504901   -18802.085    -18730.58 
    2000     161.8535    120.87293       0.0002   0.91633692  -0.39242977  -0.42629364    -2.005438    9413.8714    49035.542     74.98496   -18798.451   -18723.466 
    3000    171.70259    120.88502       0.0003    1.4926542  -0.44719311  -0.46202014   -1.9613625    9568.5858    49040.444    79.347442   -18795.658    -18716.31 
    4000    177.62276     120.8971       0.0004  -0.31861805  -0.43999752  -0.58519363   -1.9775022    10008.978    49045.347    82.258922   -18792.374   -18710.115 
    5000    181.29992    120.90919       0.0005    1.4586791  -0.51414063  -0.59016939    -1.945799     10167.03    49050.249    84.484575   -18790.266   -18705.782 
    6000    186.15087    120.92127       0.0006   0.16345999  -0.46737297  -0.49955119   -1.9477037    9715.4261    49055.152    85.735211   -18790.086   -18704.351 
    7000    182.95083    120.93336       0.0007   -2.5141136  -0.46891858  -0.44298608   -1.9621642    9580.2294    49060.054    84.029021   -18790.414   -18706.384 
    8000    177.04818    120.94544       0.0008   0.32831409  -0.42005198   -0.4422433   -1.9264116    9295.6897    49064.957    81.780543   -18791.213   -18709.432 
    9000    177.91096    120.95753       0.0009    1.4642419   -0.3830706  -0.42843154   -1.8666087    8927.0361     49069.86    82.483895   -18793.203   -18710.719 
   10000    180.67409    120.96961        0.001   -1.7707939  -0.39851376   -0.4032191   -1.8220002    8745.7769    49074.762    83.028423     -18792.5   -18709.471 
   11000    185.09698     120.9817       0.0011  -0.39706859  -0.42821607  -0.41055064   -1.8291291    8892.9862    49079.665     85.48269   -18792.507   -18707.024 
   12000    185.10692    120.99378       0.0012   -1.0830647  -0.38664952  -0.46325257   -1.7997672     8832.231    49084.567    85.554491   -18791.197   -18705.643 
   13000    183.36311    121.00587       0.0013  -0.31542335  -0.36212593  -0.42217608   -1.8039793    8627.6043     49089.47    84.831255   -18791.242   -18706.411 
   14000    181.03504    121.01795       0.0014    1.7750608   -0.3511166  -0.31430697   -1.7525602    8059.9459    49094.372    83.787673   -18792.353   -18708.565 
   15000    178.37252    121.03004       0.0015    2.7633346  -0.30892063  -0.32228509   -1.7320273    7877.4435    49099.275    81.741107   -18791.793   -18710.052 
   16000    181.67382    121.04212       0.0016      1.34728  -0.33752866  -0.28589489   -1.6952142    7728.7924    49104.178    83.625764   -18793.757   -18710.131 
   17000     180.2796    121.05421       0.0017 -0.087793261  -0.30703146   -0.3781345   -1.6284576    7712.0786     49109.08    83.533755   -18792.298   -18708.764 
   18000    182.91111    121.06629       0.0018    1.1424449  -0.35694407  -0.32186407   -1.6371973     7720.018    49113.983    84.850176   -18792.193   -18707.343 
   19000    183.68598    121.07838       0.0019   -1.7386682  -0.23237513  -0.28190368   -1.5930251    7024.3462    49118.885    85.035611   -18792.275   -18707.239 
   20000    176.93197    121.09046        0.002   -1.3266315  -0.23928406  -0.32298029   -1.5893687    7172.1101    49123.788    82.487439   -18791.124   -18708.636 
   21000    176.97989    121.10255       0.0021    0.9182567  -0.16730263  -0.31692086   -1.5672207    6838.1473     49128.69    81.601022   -18791.734   -18710.133 
   22000    176.32246    121.11463       0.0022   -1.2223546  -0.19192456  -0.27642141   -1.5262674    6648.7112    49133.593    81.867803   -18792.147   -18710.279 
   23000    187.45888    121.12672       0.0023  -0.37044331  -0.17160375  -0.18290989    -1.496439    6169.8421    49138.496    86.629948   -18794.952   -18708.322 
   24000    182.29194     121.1388       0.0024     -3.75018  -0.27415584  -0.21948545    -1.479539    6577.2676    49143.398    84.126147   -18791.118   -18706.992 
   25000    181.08573    121.15088       0.0025  -0.46075774  -0.23721665  -0.21701283   -1.4272492    6271.5955    49148.301    84.601366   -18792.434   -18707.832 
   26000    182.38427    121.16297       0.0026    1.6144584  -0.20039497  -0.21613381   -1.4559863    6241.7168    49153.203    84.739593   -18793.606   -18708.867 
   27000    178.04373    121.17505       0.0027     1.939049  -0.17556648  -0.17755753     -1.39572    5829.4799    49158.106    83.489729   -18792.817   -18709.327 
   28000     179.6617    121.18714       0.0028    -1.415116  -0.18184546  -0.16483019   -1.3544871    5670.5426    49163.008    84.231397   -18793.698   -18709.466 
   29000    180.43398    121.19922       0.0029 -0.091018991  -0.12937622   -0.1301272   -1.3184187    5259.7405    49167.911    84.923268   -18794.092   -18709.169 
   30000     182.1077    121.21131        0.003    -1.469231  -0.15630374  -0.12790242   -1.3329114    5390.3919    49172.814    84.581574   -18792.065   -18707.484 
   31000    181.49232    121.22339       0.0031    1.5085845 -0.094371236  -0.15839929   -1.3534017    5353.9074    49177.716    84.759852   -18791.339   -18706.579 
   32000    179.84744    121.23548       0.0032   0.95170716  -0.11819786  -0.15949618   -1.2458228    5078.3895    49182.619    83.587946   -18792.005   -18708.417 
   33000    178.15231    121.24756       0.0033  -0.47901713  -0.10765811  -0.10009575   -1.2521583    4866.3738    49187.521    82.376698   -18792.545   -18710.168 
   34000    174.79466    121.25965       0.0034  -0.41358662 -0.082351709 -0.097997731    -1.255195    4785.1482    49192.424    82.002486   -18792.078   -18710.076 
   35000    179.51038    121.27173       0.0035    2.6605843  -0.11120732 -0.036073887   -1.2366372    4613.0614    49197.327    83.842124   -18792.883   -18709.041 
   36000    181.82773    121.28382       0.0036  -0.59441738  -0.03821743  -0.10412874   -1.1675243    4366.2348    49202.229    85.089508   -18792.613   -18707.523 
   37000    184.69629     121.2959       0.0037    -1.021363 -0.061243778 -0.037573948   -1.2233968    4407.3818    49207.132    85.636958   -18790.584   -18704.947 
   38000    182.89811    121.30799       0.0038    1.5356847 -0.020104973 -0.0027745839   -1.2471014    4233.2697    49212.034    85.436655   -18790.262   -18704.826 
   39000    180.33373    121.32007       0.0039   -4.4621606  0.031543837 -0.020623794   -1.1420674    3770.4911    49216.937     84.23558   -18792.223   -18707.987 
   40000    179.19736    121.33216        0.004  0.030331975  0.066183951 -0.013169415   -1.1188063    3552.6392    49221.839    83.058191   -18792.183   -18709.125 
   41000    178.28383    121.34424       0.0041  -0.19987456  0.023772674 -0.0091114322   -1.0294419     3382.602    49226.742    82.774776   -18792.825    -18710.05 
   42000    183.13505    121.35633       0.0042   0.94081215  0.050382166   0.01848267   -1.0154316    3155.2227    49231.645    84.571747   -18794.823   -18710.251 
   43000    183.60173    121.36841       0.0043     1.966783  0.069467899  0.053498153  -0.98615865    2877.3086    49236.547    85.549694   -18794.745   -18709.196 
   44000    183.72934     121.3805       0.0044     1.161039  0.066953706 -0.017008573   -1.0110792    3203.7802     49241.45    84.685532   -18792.262   -18707.576 
LAMMPS (24 Aug 2020)
Reading data file ...
  orthogonal box = (0.0000000 0.0000000 0.0000000) to (19.950000 19.950000 119.70000)
  2 by 2 by 10 MPI processor grid
  reading atoms ...
  4322 atoms
  read_data CPU = 0.011 seconds
Neighbor list info ...
  update every 1 steps, delay 0 steps, check yes
  max neighbors/atom: 2000, page size: 100000
  master list distance cutoff = 4.55
  ghost atom cutoff = 4.55
  binsize = 2.275, bins = 9 9 53
  2 neighbor lists, perpetual/occasional/extra = 2 0 0
  (1) pair meam, perpetual
      attributes: full, newton on
      pair build: full/bin/atomonly
      stencil: full/bin/3d
      bin: standard
  (2) pair meam, perpetual, half/full from (1)
      attributes: half, newton on
      pair build: halffull/newton
      stencil: none
      bin: none
Setting up cg style minimization ...
  Unit style    : metal
  Current step  : 0
WARNING: Energy due to 1 extra global DOFs will be included in minimizer energies
Per MPI rank memory allocation (min/avg/max) = 9.847 | 9.863 | 9.886 Mbytes
Step Temp E_pair E_mol TotEng Press Volume 
       0            0   -16602.405            0   -16602.405    280290.67    47640.899 
   45000    183.75884    121.39258       0.0045   -1.3845366   0.10806392   0.11708646   -1.0376479     2708.325    49246.352    84.887115   -18792.481   -18707.594 
   46000    176.52323    121.40467       0.0046   -1.3119976    0.1218893  0.049851077  -0.97552961    2679.2974    49251.255    81.940995   -18792.547   -18710.606 
   47000    178.55891    121.41675       0.0047   0.47996899   0.11547694  0.075486975   -0.8270345    2120.2353    49256.157    82.786386   -18794.109   -18711.323 
   48000    182.43929    121.42884       0.0048   0.71147237   0.15834143   0.11969467  -0.92258659    2148.5016     49261.06    84.297061   -18794.574   -18710.277 
   49000    185.81898    121.44092       0.0049   0.16124145   0.12969228    0.1961994  -0.93770265    2039.3699    49265.963    85.535589   -18794.102   -18708.567 
   50000    181.73728    121.45301        0.005   0.89297117   0.10285592   0.10749965  -0.86479681    2181.4708    49270.865     83.70082   -18791.889   -18708.188 
LAMMPS (24 Aug 2020)
Reading data file ...
  orthogonal box = (0.0000000 0.0000000 0.0000000) to (19.950000 19.950000 119.70000)
  2 by 2 by 10 MPI processor grid
  reading atoms ...
  4322 atoms
  read_data CPU = 0.012 seconds
Neighbor list info ...
  update every 1 steps, delay 0 steps, check yes
  max neighbors/atom: 2000, page size: 100000
  master list distance cutoff = 4.55
  ghost atom cutoff = 4.55
  binsize = 2.275, bins = 9 9 53
  2 neighbor lists, perpetual/occasional/extra = 2 0 0
  (1) pair meam, perpetual
      attributes: full, newton on
      pair build: full/bin/atomonly
      stencil: full/bin/3d
      bin: standard
  (2) pair meam, perpetual, half/full from (1)
      attributes: half, newton on
      pair build: halffull/newton
      stencil: none
      bin: none
Setting up cg style minimization ...
  Unit style    : metal
  Current step  : 0
WARNING: Energy due to 1 extra global DOFs will be included in minimizer energies
Per MPI rank memory allocation (min/avg/max) = 9.847 | 9.863 | 9.886 Mbytes
Step Temp E_pair E_mol TotEng Press Volume 
       0            0   -16602.405            0   -16602.405    280290.67    47640.899 
    6968            0   -18861.988            0   -18861.988 -0.0033298059    49025.736 
Loop time of 26.563 on 40 procs for 6968 steps with 4322 atoms

90.8% CPU use with 40 MPI tasks x no OpenMP threads

Minimization stats:
  Stopping criterion = energy tolerance
  Energy initial, next-to-last, final = 
     -16602.4052199757  -18861.9883727331  -18861.9883727331
  Force two-norm initial, final = 25017.61553365413 0.0008222515865493893
  Force max component initial, final = 25003.424183833355 0.000357318288788119
  Final line search alpha, max atom move = 0.4915103675990879 0.0001756256434721254
  Iterations, force evaluations = 6968 13614

MPI task timing breakdown:
Section |  min time  |  avg time  |  max time  |%varavg| %total
---------------------------------------------------------------
Pair    | 19.159     | 19.889     | 20.758     |   8.7 | 74.87
Neigh   | 2.6742     | 3.1444     | 3.6606     |  11.4 | 11.84
Comm    | 1.4117     | 2.2444     | 3.0954     |  28.3 |  8.45
Output  | 0          | 0          | 0          |   0.0 |  0.00
Modify  | 0          | 0          | 0          |   0.0 |  0.00
Other   |            | 1.285      |            |       |  4.84

Nlocal:        108.050 ave         124 max          93 min
Histogram: 3 1 3 7 7 8 3 4 1 3
Nghost:        641.150 ave         673 max         607 min
Histogram: 1 3 6 3 7 4 3 6 5 2
Neighs:        1572.20 ave        1855 max        1327 min
Histogram: 3 0 7 5 7 9 5 2 1 1
FullNghs:      3144.40 ave        3737 max        2623 min
Histogram: 2 1 4 6 7 10 7 1 1 1

Total # of neighbors = 125776
Ave neighs/atom = 29.101342
Neighbor list builds = 13081
Dangerous builds = 12805
Setting up Verlet run ...
  Unit style    : metal
  Current step  : 6968
  Time step     : 0.001
Per MPI rank memory allocation (min/avg/max) = 8.727 | 8.743 | 8.765 Mbytes
Step Temp Lx Ly Lz Press Pxx Pyy Pzz KinEng PotEng TotEng 
    6968           20     20.14146     20.14146    120.84876     243.3705   -11340.994   -10863.067    22934.173    11.170662   -18861.988   -18850.818 
    7000    5.7255322     20.14146     20.14146    120.84876    1076.2489   -10541.959   -10034.505    23805.211    3.1978991    -18854.01   -18850.812 
    8000    12.877956     20.14146     20.14146    120.84876     750.6965   -10826.766   -10092.749    23171.604    7.1927643   -18857.014   -18849.821 
    9000    14.914249     20.14146     20.14146    120.84876    884.24899   -10107.826   -9605.3849    22365.958    8.3301015   -18856.508   -18848.178 
   10000    17.394496     20.14146     20.14146    120.84876    971.34769   -9797.2797   -9968.3997    22679.722    9.7154013   -18855.783   -18846.068 
   11000    19.797157     20.14146     20.14146    120.84876    970.35598   -9773.7475   -9632.8908    22317.706    11.057367   -18854.572   -18843.515 
   12000    23.439519     20.14146     20.14146    120.84876    1138.2002   -9689.7627   -9230.7138    22335.077    13.091747   -18853.585   -18840.493 
   13000    27.584613     20.14146     20.14146    120.84876    1356.2053   -9222.8117   -8686.6675    21978.095    15.406919   -18852.338   -18836.931 
   14000    31.078271     20.14146     20.14146    120.84876    1812.9467   -8732.6267   -8071.6361    22243.103    17.358243   -18850.277   -18832.918 
   15000    38.176703     20.14146     20.14146    120.84876     1891.714   -7830.1962   -7242.1627    20747.501    21.322952   -18849.777   -18828.454 
   16000    43.216531     20.14146     20.14146    120.84876    2200.8169     -6926.64   -6453.6788     19982.77    24.137863   -18847.975   -18823.837 
   17000    49.945469     20.14146     20.14146    120.84876    2440.5429   -6295.7082   -5944.8554    19562.192    27.896197   -18847.242   -18819.346 
   18000    54.567606     20.14146     20.14146    120.84876    2718.9709   -5835.6468   -5124.6593    19117.219    30.477813    -18845.71   -18815.233 
   19000    59.121381     20.14146     20.14146    120.84876    2891.0738   -5838.5857   -4846.1803    19357.987    33.021247   -18844.652    -18811.63 
   20000    63.318997     20.14146     20.14146    120.84876    3040.5616        -4894   -4467.3809    18483.066    35.365755   -18843.851   -18808.485 
   21000    64.985194     20.14146     20.14146    120.84876    3356.9399   -5108.0809   -4104.3033    19283.204    36.296381   -18841.913   -18805.616 
   22000    68.162004     20.14146     20.14146    120.84876    3403.4512   -4286.3758   -3842.7053    18339.435    38.070734   -18840.968   -18802.897 
   23000    71.702016     20.14146     20.14146    120.84876    3616.9406    -3929.816   -3669.0225     18449.66    40.047948   -18840.051   -18800.003 
   24000    74.138903     20.14146     20.14146    120.84876      3897.14   -3407.7174     -2936.45    18035.587     41.40903   -18838.111   -18796.702 
   25000    77.297059     20.14146     20.14146    120.84876    4154.7106   -3339.0445   -2549.1945    18352.371    43.172965   -18836.458   -18793.285 
   26000    82.443808     20.14146     20.14146    120.84876    4153.4094   -2778.1219   -2377.9256    17616.276    46.047594   -18835.955   -18789.908 
   27000    84.741197     20.14146     20.14146    120.84876    4490.5501   -2682.7601   -2238.7913    18393.202    47.330762   -18834.306   -18786.976 
   28000    86.582158     20.14146     20.14146    120.84876     5247.101   -1612.6937    -1435.157    18789.154       48.359   -18832.254   -18783.895 
   29000    89.993017     20.14146     20.14146    120.84876    4885.1329   -2041.4873   -1286.5925    17983.478    50.264077   -18830.714    -18780.45 
   30000    94.759765     20.14146     20.14146    120.84876    5378.8507   -1087.5907   -1435.8959    18660.039    52.926464   -18829.948   -18777.021 
   31000    98.576849     20.14146     20.14146    120.84876    5420.9275   -936.09283   -716.55939    17915.435    55.058432   -18828.981   -18773.923 
   32000    101.68464     20.14146     20.14146    120.84876    5415.6882   -313.30475   -191.32622    16751.696    56.794236   -18827.762   -18770.968 
   33000    105.62111     20.14146     20.14146    120.84876    5742.6544   -1140.4152    755.60246    17612.776    58.992885   -18827.076   -18768.084 
   34000    108.41924     20.14146     20.14146    120.84876    5922.3733   -518.78467    139.97203    18145.933    60.555735   -18825.757   -18765.202 
   35000    109.68561     20.14146     20.14146    120.84876    6247.9364    159.45599    521.93932    18062.414    61.263043   -18823.279   -18762.016 
   36000    113.45789     20.14146     20.14146    120.84876    6661.2445    402.29781    515.14576     19066.29    63.369985   -18821.646   -18758.276 
   37000    117.21187     20.14146     20.14146    120.84876    6638.9652       475.87    879.80985    18561.216    65.466705   -18819.778   -18754.312 
   38000    121.36491     20.14146     20.14146    120.84876    6787.4971    1023.8816    1487.5025    17851.107    67.786321   -18818.337   -18750.551 
   39000    123.29366     20.14146     20.14146    120.84876    7313.1179    961.24266    2564.5966    18413.515     68.86359   -18816.288   -18747.425 
   40000    124.50627     20.14146     20.14146    120.84876      7569.63    1598.9492    2505.9631    18603.978     69.54087   -18814.084   -18744.543 
   41000    129.70355     20.14146     20.14146    120.84876    7648.3152    1774.2623     2440.166    18730.517    72.443724   -18813.724    -18741.28 
   42000    135.08485     20.14146     20.14146    120.84876    7802.0815    2270.0677    3164.6756    17971.501    75.449361   -18813.001   -18737.552 
   43000    136.16691     20.14146     20.14146    120.84876    8299.3339    2947.5721    3062.7193     18887.71    76.053725    -18810.42   -18734.367 
   44000    142.03775     20.14146     20.14146    120.84876    8390.6867    2990.9645    3396.4765    18784.619    79.332781   -18810.999   -18731.666 
   45000     142.2512     20.14146     20.14146    120.84876    8347.4805    2734.3159    3342.7711    18965.355       79.452   -18808.104   -18728.652 
   46000    146.65315     20.14146     20.14146    120.84876    8765.3378    3634.5214    3750.9737    18910.518    81.910635    -18806.88    -18724.97 
   46968    149.33651     20.14146     20.14146    120.84876      9135.76    3679.7581    4539.9897    19187.532    83.409384   -18804.483   -18721.074 
Loop time of 69.7608 on 40 procs for 40000 steps with 4322 atoms

Performance: 49.541 ns/day, 0.484 hours/ns, 573.388 timesteps/s
89.6% CPU use with 40 MPI tasks x no OpenMP threads

MPI task timing breakdown:
Section |  min time  |  avg time  |  max time  |%varavg| %total
---------------------------------------------------------------
Pair    | 57.425     | 59.359     | 62.711     |  15.1 | 85.09
Neigh   | 2.6991     | 3.0613     | 3.4514     |   9.8 |  4.39
Comm    | 2.9059     | 5.1205     | 7.745      |  49.9 |  7.34
Output  | 0.0022335  | 0.002251   | 0.0024832  |   0.1 |  0.00
Modify  | 0.38323    | 1.8907     | 3.5014     |  86.6 |  2.71
Other   |            | 0.3267     |            |       |  0.47

Nlocal:        108.050 ave         123 max          94 min
Histogram: 1 3 5 9 6 2 4 5 3 2
Nghost:        639.750 ave         668 max         606 min
Histogram: 1 4 3 3 5 8 2 8 4 2
Neighs:        1584.65 ave        1876 max        1326 min
Histogram: 1 2 4 8 6 11 2 5 0 1
FullNghs:      3169.30 ave        3725 max        2665 min
Histogram: 2 1 5 7 6 9 4 2 3 1

Total # of neighbors = 126772
Ave neighs/atom = 29.331791
Neighbor list builds = 12457
Dangerous builds = 0
Initial Length, L0: 120.848762886492
737 atoms in group grest
705 atoms in group gmove
2880 atoms in group mid
3617 atoms in group tempstat
Setting up Verlet run ...
  Unit style    : metal
  Current step  : 0
  Time step     : 0.001
Per MPI rank memory allocation (min/avg/max) = 10.48 | 10.5 | 10.52 Mbytes
Step c_midT Lz v_p1 v_p5 v_p2 v_p3 v_p4 Press Volume KinEng PotEng TotEng 
       0    147.56453    120.84876 2.4694332e-15    1.6419834  -0.36797581  -0.45399897   -1.9187532      9135.76    49025.736    83.409384   -18804.483   -18721.074 
    1000    149.42047    120.86085       0.0001    1.3715495  -0.34341876  -0.38050082   -1.8851945     8697.047    49030.639    69.592083    -18805.04   -18735.448 
    2000    150.82995    120.87293       0.0002    1.7920179  -0.31877927  -0.39037584   -1.9074005    8721.8522    49035.542    70.116606   -18804.673   -18734.557 
    3000    155.16926    120.88502       0.0003    4.3217106  -0.32367428  -0.36514083   -1.8442998    8443.7164    49040.444    71.731438   -18804.774   -18733.043 
    4000    154.15259     120.8971       0.0004     3.738743  -0.30291986  -0.36030216   -1.8302499    8311.5733    49045.347    71.353093   -18804.907   -18733.554 
    5000    150.60336    120.90919       0.0005    4.5915742  -0.27203532    -0.364868   -1.7734589    8034.5407    49050.249    70.032286   -18805.702    -18735.67 
    6000    150.58328    120.92127       0.0006    6.1988157  -0.29483909  -0.32103296   -1.7655939    7938.2198    49055.152    70.024813    -18806.24   -18736.215 
    7000    151.65006    120.93336       0.0007    5.8022305  -0.22357647  -0.28691445   -1.7088414    7397.7743    49060.054    70.421804   -18806.651   -18736.229 
    8000    148.02408    120.94544       0.0008    4.8720493  -0.27094459  -0.27836389   -1.6810073    7434.3858    49064.957    69.072431   -18805.089   -18736.017 
    9000    146.88863    120.95753       0.0009    6.3512009   -0.2701427  -0.30781118   -1.6380171    7386.5699     49069.86    68.649885   -18803.986   -18735.336 
   10000    152.70724    120.96961        0.001    6.9461217   -0.2141068  -0.28180781   -1.6152203    7037.1163    49074.762    70.815223   -18805.332   -18734.517 
   11000    148.40342     120.9817       0.0011    6.3638034  -0.20058149  -0.25383719   -1.6498032     7014.073    49079.665    69.213598   -18804.086   -18734.872 
   12000    148.00807    120.99378       0.0012    8.8352207  -0.15952361  -0.27494583   -1.6224156    6856.2833    49084.567    69.066475   -18805.674   -18736.608 
   13000    150.51921    121.00587       0.0013     9.496853  -0.20291039  -0.22407605   -1.5758173    6676.0125     49089.47    70.000967   -18807.148   -18737.147 
   14000    149.69213    121.01795       0.0014    9.6660941  -0.11486122  -0.18790829   -1.6237754    6421.8163    49094.372    69.693179   -18805.918   -18736.225 
   15000    149.05611    121.03004       0.0015    10.551518  -0.17358989  -0.18649537   -1.5525576    6375.4763    49099.275    69.456492   -18804.351   -18734.895 
   16000    153.42244    121.04212       0.0016    9.7785156  -0.12238059  -0.19851544   -1.5512761    6240.5738    49104.178    71.081377   -18805.742   -18734.661 
   17000    149.53455    121.05421       0.0017    10.883633  -0.12943555  -0.17240161   -1.5393521    6137.2974     49109.08    69.634538   -18804.597   -18734.963 
   18000    151.19598    121.06629       0.0018    12.572702   -0.1156794   -0.1955217   -1.5244648    6118.8863    49113.983    70.252821   -18805.805   -18735.552 
   19000    148.40254    121.07838       0.0019    11.630782  -0.12961432  -0.19048235   -1.4545539     5915.502    49118.885    69.213271   -18805.283    -18736.07 
   20000    149.54389    121.09046        0.002    12.585087 -0.070585853  -0.10083034   -1.4314815    5342.9922    49123.788    69.638013   -18805.736   -18736.098 
   21000    150.29896    121.10255       0.0021    13.402789 -0.027029437   -0.1303863   -1.4386946    5320.3677     49128.69    69.919006   -18804.746   -18734.827 
   22000    148.65156    121.11463       0.0022    12.799672  -0.10041904  -0.13529526    -1.400855     5455.231    49133.593    69.305941   -18802.624   -18733.318 
   23000    153.23085    121.12672       0.0023    13.373977 -0.031500541  -0.13373502      -1.4229    5293.7852    49138.496    71.010079   -18804.202   -18733.192 
   24000    148.51215     121.1388       0.0024    14.422529  -0.02795324  -0.13520666   -1.3427637    5019.7455    49143.398     69.25406   -18804.418   -18735.164 
   25000    148.27644    121.15088       0.0025    15.539887 -0.057479876 -0.051778401   -1.2622475     4571.686    49148.301    69.166344    -18804.84   -18735.674 
   26000    152.11126    121.16297       0.0026    14.319477 -0.0054314267 -0.035006851   -1.2884328    4429.5704    49153.203    70.593435   -18805.307   -18734.713 
   27000    149.41608    121.17505       0.0027     15.38464 -0.016369512 -0.097179606   -1.2721752    4619.0811    49158.106    69.590449   -18802.996   -18733.406 
   28000    151.68994    121.18714       0.0028    16.126818  -0.03686559 -0.081065482   -1.2028425    4402.5784    49163.008    70.436644   -18803.072   -18732.635 
   29000    148.70624    121.19922       0.0029    17.138593 -0.027315696 -0.056361598   -1.2289018    4375.2638    49167.911    69.326291   -18802.212   -18732.886 
   30000    145.06832    121.21131        0.003    17.638043  0.053485566  -0.02234627   -1.2129634    3939.4137    49172.814    67.972476    -18803.39   -18735.418 
   31000    146.77824    121.22339       0.0031    17.712015   0.02096609  0.046229639   -1.2047549    3791.8638    49177.716    68.608806   -18803.565   -18734.956 
   32000    147.14597    121.23548       0.0032    16.148804 -0.0011907127 0.00016775846   -1.1205979    3738.7362    49182.619    68.745653   -18801.678   -18732.932 
   33000    149.17867    121.24756       0.0033    19.594732   0.03000275  0.031419766   -1.2122832    3836.2023    49187.521      69.5021   -18801.247   -18731.745 
   34000     153.2851    121.25965       0.0034    18.846178   0.11358328 -0.0044619578   -1.1340149    3416.3118    49192.424    71.030266   -18802.425   -18731.394 
   35000    147.42694    121.27173       0.0035    18.588532   0.04778241  -0.01992879   -1.0884576    3535.3467    49197.327    68.850213   -18800.849   -18731.999 
   36000    145.73054    121.28382       0.0036    18.699119  0.081584878  0.071702696   -1.0640358    3035.8273    49202.229    68.218913   -18802.018   -18733.799 
   37000    146.44382     121.2959       0.0037    20.939481   0.10524624  0.083052711   -1.0541467    2886.1593    49207.132    68.484352   -18801.784   -18733.299 
   38000    149.97709    121.30799       0.0038    20.649384   0.15002281 -0.002370795   -1.0605402    3042.9608    49212.034    69.799223   -18801.345   -18731.546 
   39000    153.59698    121.32007       0.0039    21.142133   0.13935103  0.092077751   -1.0534339    2740.0172    49216.937    71.146331    -18801.84   -18730.694 
   40000    150.00408    121.33216        0.004    21.933812  0.096871704  0.094821118  -0.98650255    2649.3657    49221.839    69.809268   -18799.929    -18730.12 
   41000    149.44901    121.34424       0.0041    22.875585   0.13250014  0.086809149   -1.0052531    2619.8127    49226.742    69.602706   -18799.303     -18729.7 
   42000    150.56572    121.35633       0.0042      22.8597   0.18188331  0.067826192  -0.98714481    2458.1177    49231.645    70.018278   -18799.663   -18729.644 
   43000    149.89403    121.36841       0.0043     23.96784   0.16352238  0.074011084  -0.91284941    2251.0532    49236.547    69.768314   -18799.948    -18730.18 
   44000    146.97866     121.3805       0.0044    22.659055   0.22483705   0.10210421  -0.93469272    2025.8382     49241.45    68.683391   -18799.111   -18730.428 
   45000    150.64368    121.39258       0.0045    22.406586   0.23607803   0.12093187  -0.88426713    1757.5241    49246.352    70.047291   -18799.438   -18729.391 
   46000    152.01997    121.40467       0.0046    22.962567   0.23661984   0.10340716  -0.98078639    2135.8646    49251.255    70.559463   -18797.744   -18727.185 
   47000    151.48329    121.41675       0.0047    23.872941   0.20751415   0.13410106  -0.86108318    1731.5599    49256.157    70.359741   -18797.066   -18726.706 
   48000    152.20319    121.42884       0.0048    21.692073   0.24244848   0.14685712  -0.80433616    1383.4352     49261.06    70.627646   -18798.133   -18727.506 
   49000    149.49712    121.44092       0.0049     24.37184   0.25415202    0.2555047  -0.88482428    1250.5585    49265.963     69.62061   -18797.543   -18727.922 
   50000    148.01906    121.45301        0.005    22.815196   0.23072926    0.2432792  -0.88313444    1363.7533    49270.865    69.070564   -18796.591    -18727.52 
   51000    150.19692    121.46509       0.0051    25.252808   0.20267794   0.23014329  -0.75114952    1061.0943    49275.768     69.88103   -18796.711    -18726.83 
   52000    148.27803    121.47718       0.0052    25.653659   0.23305925   0.20976809  -0.76100157    1060.5808     49280.67    69.166937   -18795.011   -18725.844 
   53000    155.77032    121.48926       0.0053    23.263686    0.2419269   0.26733913  -0.78567047    921.34813    49285.573    71.955115   -18796.073   -18724.118 
   54000    152.01792    121.50135       0.0054    27.315268   0.24753944   0.28871456  -0.74986832    712.04776    49290.475    70.558699    -18793.72   -18723.161 
   55000    148.77254    121.51343       0.0055    25.204165   0.33916219   0.18423212  -0.76534486    806.50182    49295.378    69.350964   -18794.244   -18724.893 
   56000    147.65856    121.52552       0.0056    26.484806   0.28584214   0.26138009  -0.66573139    395.03053    49300.281    68.936406   -18794.575   -18725.639 
   57000    153.41698     121.5376       0.0057    27.164506   0.32877394     0.267156  -0.63003561    113.68555    49305.183    71.079344   -18796.214   -18725.135 
   58000    150.00289    121.54969       0.0058    28.082519   0.26717488   0.30064151  -0.67246285    348.82154    49310.086    69.808826   -18793.606   -18723.798 
   59000    153.50487    121.56177       0.0059    25.901817   0.33828375   0.29322561  -0.70540866      246.331    49314.988    71.112052   -18792.974   -18721.862 
   60000    154.55414    121.57386        0.006    27.446955   0.36730363   0.24757544  -0.66643886    171.86594    49319.891    71.502527   -18792.596   -18721.094 
   61000    150.71446    121.58594       0.0061    26.936356   0.34442953   0.32769467  -0.63396947   -127.18244    49324.793     70.07363    -18793.41   -18723.337 
   62000    149.67002    121.59803       0.0062    27.091832   0.38220888   0.30561732  -0.60025888   -291.89105    49329.696    69.684953   -18793.444   -18723.759 
   63000    150.27154    121.61011       0.0063    26.136853   0.36513926   0.32316698  -0.57012592    -393.9344    49334.599    69.908803   -18792.796   -18722.888 
   64000    148.29894    121.62219       0.0064    27.874945   0.38940253   0.33164229  -0.59093536   -433.69824    49339.501    69.174719   -18790.189   -18721.014 
   65000     151.1205    121.63428       0.0065    26.475273   0.38220812    0.3554746  -0.55745071   -600.77337    49344.404    70.224731   -18790.107   -18719.882 
   66000    150.73332    121.64636       0.0066    28.180037   0.43575211   0.32463763  -0.54409184   -720.99298    49349.306    70.080646   -18790.835   -18720.755 
   67000    146.41437    121.65845       0.0067    28.421684   0.42582511    0.3859391  -0.50723233   -1015.1063    49354.209    68.473392   -18790.949   -18722.475 
   68000    149.19993    121.67053       0.0068    27.189005   0.44494788   0.43308896   -0.5246526   -1177.9475    49359.111    69.510013   -18790.922   -18721.412 
   69000    150.15137    121.68262       0.0069    27.210339   0.44013119   0.38088633   -0.4351039   -1286.3787    49364.014     69.86408   -18789.366   -18719.502 
   70000    151.13629     121.6947        0.007    29.683624   0.41496397   0.40044764  -0.41110895   -1347.6755    49368.917     70.23061   -18788.632   -18718.401 
   71000    150.92712    121.70679       0.0071    29.038531   0.43959089   0.45222825  -0.49655704   -1317.5404    49373.819    70.152768   -18788.419   -18718.267 
   72000    149.21582    121.71887       0.0072    27.926233   0.55738925   0.41830059  -0.46071198   -1716.5928    49378.722    69.515924   -18789.485   -18719.969 
   73000    147.17362    121.73096       0.0073    27.289299   0.47780145   0.46434788  -0.38774832   -1848.0034    49383.624    68.755943   -18789.296    -18720.54 
   74000    148.45143    121.74304       0.0074    29.762796    0.4743406   0.43367404  -0.35126925    -1855.818    49388.527    69.231466   -18788.167   -18718.935 
   75000     149.2204    121.75513       0.0075    29.572881   0.48353654   0.48814858  -0.41478311     -1856.34    49393.429    69.517631   -18786.819   -18717.301 
   76000    150.63105    121.76721       0.0076    29.624613   0.51044572   0.46749499  -0.40018955   -1925.8372    49398.332    70.042588   -18786.509   -18716.466 
   77000    148.35394     121.7793       0.0077    30.800419   0.47288999   0.50603655  -0.41946853     -1864.86    49403.235    69.195187     -18785.6   -18716.405 
   78000    147.99344    121.79138       0.0078    29.323854   0.56097578   0.46594083   -0.3257593    -2337.191    49408.137    69.061027    -18786.94   -18717.879 
   79000    145.16289    121.80347       0.0079    28.832291   0.54388951    0.5349154  -0.28037703   -2661.4263     49413.04    68.007668   -18786.488   -18718.481 
   80000    148.05074    121.81555        0.008    31.145239   0.54316562   0.49414749  -0.31097704   -2421.1202    49417.942    69.082351   -18785.858   -18716.775 
   81000    149.47563    121.82764       0.0081    29.791574   0.52456588   0.47733501  -0.22787443   -2580.0882    49422.845    69.612611   -18784.952   -18715.339 
   82000    152.40935    121.83972       0.0082    31.194483   0.57607844   0.53858248  -0.27644769   -2794.0441    49427.747    70.704367    -18784.95   -18714.245 
   83000    151.01603    121.85181       0.0083    30.920747   0.55453646   0.54386337  -0.26613263    -2774.224     49432.65    70.185854   -18783.553   -18713.367 
   84000    150.68414    121.86389       0.0084    30.051498   0.55719379   0.56229462  -0.29099873   -2761.6323    49437.553    70.062347   -18783.022    -18712.96 
   85000    150.13812    121.87598       0.0085    31.058695   0.54945402   0.58419491  -0.20981209   -3079.4562    49442.455     69.85915   -18783.555   -18713.696 
   86000    150.73624    121.88806       0.0086     30.31932    0.6593418   0.55078381  -0.25238814   -3192.4583    49447.358    70.081733   -18784.364   -18714.282 
   87000    147.38137    121.90015       0.0087    30.528483   0.64626236   0.53473921  -0.20140019   -3265.3379     49452.26    68.833253   -18782.048   -18713.214 
   88000     148.3298    121.91223       0.0088    31.906412   0.65922421   0.54438849  -0.18379748   -3399.3841    49457.163    69.186201   -18779.893   -18710.707 
   89000    149.22832    121.92432       0.0089    30.126195   0.53219843   0.60340459  -0.18116567   -3181.4578    49462.065    69.520576   -18779.542   -18710.022 
   90000    148.68233     121.9364        0.009    30.362878   0.59990376   0.61387104  -0.17520523   -3461.8986    49466.968    69.317394   -18779.683   -18710.366 
   91000    150.03523    121.94849       0.0091    30.473108   0.68192052   0.55004976  -0.10363434   -3761.1198    49471.871    69.820859   -18780.613   -18710.793 
   92000    148.12561    121.96057       0.0092    29.289818   0.63123053   0.68135215  -0.10325673   -4031.0865    49476.773    69.110216   -18779.785   -18710.675 
   93000    148.98371    121.97266       0.0093    32.379152    0.6325937   0.61632775  -0.15958032   -3631.1371    49481.676    69.429548   -18778.532   -18709.102 
   94000    151.31924    121.98474       0.0094    29.065463   0.63172094   0.57645755  -0.11847216   -3632.3544    49486.578    70.298691   -18777.336   -18707.038 
   95000    153.19166    121.99683       0.0095    31.054002   0.63365537   0.67122128  -0.07481058   -4100.2202    49491.481    70.995493   -18777.978   -18706.983 
   96000    148.80006    122.00891       0.0096    31.271876   0.62998378   0.65660288 -0.041978123   -4148.6951    49496.384    69.361206   -18777.667   -18708.306 
   97000    146.91739      122.021       0.0097    31.418818   0.70957575   0.65828383 -0.044953034   -4409.6885    49501.286    68.660587   -18777.232   -18708.571 
   98000    146.02755    122.03308       0.0098    30.446639   0.65885769   0.68388824 -0.019291088   -4411.5162    49506.189    68.329443   -18775.984   -18707.655 
   99000     151.1621    122.04517       0.0099    30.250677   0.70359456   0.65857994 -0.027340828   -4449.4456    49511.091    70.240214   -18775.897   -18705.657 
  100000    155.17713    122.05725         0.01    31.115436   0.68771731   0.69481021 -0.069117728   -4378.0326    49515.994    71.734366   -18775.028   -18703.294 
  101000     153.0086    122.06934       0.0101    30.356455   0.71284308    0.7027997  0.020959177   -4788.6732    49520.896     70.92737   -18774.298   -18703.371 
  102000    151.15319    122.08142       0.0102      30.5865   0.71010559   0.75016351 -0.028201832   -4773.5576    49525.799    70.236899   -18774.106   -18703.869 
  103000    149.75361    122.09351       0.0103    30.131707   0.72004979   0.77456786  0.055380472   -5166.6604    49530.702    69.716057   -18774.565   -18704.849 
  104000    150.56728    122.10559       0.0104    30.894301   0.74995444   0.75683861  0.078590459   -5284.6117    49535.604    70.018859   -18775.379    -18705.36 
  105000    146.58403    122.11767       0.0105    31.239124   0.73973664   0.75557006  0.067001727   -5207.6948    49540.507    68.536532   -18773.251   -18704.714 
  106000    155.10474    122.12976       0.0106    30.614792   0.72565898   0.79835598  0.061654191   -5285.5638    49545.409    71.707428   -18774.076   -18702.369 
  107000    155.99029    122.14184       0.0107    30.500908   0.78047285   0.70073805  0.092891102   -5247.0067    49550.312    72.036975   -18773.049   -18701.012 
  108000    151.85293    122.15393       0.0108    30.625299   0.77690113   0.74004091   0.00831345    -5084.185    49555.214    70.497299   -18771.824   -18701.327 
  109000    148.61528    122.16601       0.0109    29.646103   0.79246085   0.73131339  0.094698243   -5394.9083    49560.117    69.292442   -18770.976   -18701.684 
  110000    147.87685     122.1781        0.011    30.141967   0.80446568   0.78679501  0.099884484   -5637.1506     49565.02     69.01764   -18770.596   -18701.578 
  111000    147.49211    122.19018       0.0111    29.203608   0.83968641   0.77771483   0.16486671   -5940.8932    49569.922    68.874464   -18770.024   -18701.149 
  112000     149.7096    122.20227       0.0112    31.837782   0.86880896   0.80491312    0.1095281   -5944.1673    49574.825    69.699681   -18769.774   -18700.074 
  113000    152.95885    122.21435       0.0113    31.135361   0.78289993   0.74706999   0.19022005   -5733.9666    49579.727    70.908857   -18768.568   -18697.659 
[...]
 4744000    125.63996    178.17942       0.4744    4.6953379    5.2848711    5.2437762    4.9617791   -51634.755    72283.546    60.742407   -18112.434   -18051.692 
 4745000    164.54316     178.1915       0.4745   -5.4313575    4.9056327     4.940856    4.3305797   -47256.895    72288.448    75.219843   -18121.166   -18045.946 
 4746000    141.87784    178.20359       0.4746    7.2151166    2.8498016    2.8850459    1.3023971   -23457.482    72293.351    66.785171   -18112.184   -18045.399 
 4747000    162.54932    178.21567       0.4747   -6.0168086    4.7164569    4.7418233    4.1050199   -45211.001    72298.254    74.477855   -18119.878     -18045.4 
 4748000    124.44248    178.22776       0.4748    5.7368296    5.2570417    5.2363993    4.8744088   -51226.166    72303.156    60.296775   -18110.759   -18050.462 
 4749000    156.31229    178.23984       0.4749   -6.0878339    5.0677942    5.0870526    4.6753101   -49433.856    72308.059    72.156805   -18118.079   -18045.922 
 4750000    143.81685    178.25193        0.475    5.2657369    2.9396473     2.930812    1.5630186    -24778.26    72312.961    67.506754   -18112.615   -18045.108 
 4751000    160.68625    178.26401       0.4751   -4.6873075    4.4319385     4.489871    3.7742597    -42320.23    72317.864    73.784532   -18119.235    -18045.45 
 4752000    130.36381     178.2761       0.4752     3.618433    5.1646388    5.1553009    4.7339338   -50179.578    72322.766     62.50034   -18112.486   -18049.985 
 4753000    153.01768    178.28818       0.4753   -3.0393897    5.2098171    5.2286141    4.8591551   -50991.954    72327.669    70.930749   -18117.287   -18046.356 
 4754000    147.53191    178.30026       0.4754    4.7039617    3.2121695    3.2155725    1.8188795   -27488.738    72332.572    68.889275   -18112.789     -18043.9 
 4755000    160.64495    178.31235       0.4755    -4.300437    4.1870369    4.2594335    3.4073379   -39512.694    72337.474    73.769161   -18118.062   -18044.293 
 4756000    136.85841    178.32443       0.4756    4.1052169    5.0772486    5.0405608    4.6289134   -49155.742    72342.377    64.917239   -18113.783   -18048.866 
 4757000    147.79124    178.33652       0.4757   -4.4048793    5.4035771    5.4342635     5.122881   -53202.405    72347.279    68.985781   -18116.224   -18047.238 
 4758000    154.42223     178.3486       0.4758    4.9978985    3.3875401    3.3737499    2.0944627   -29519.176    72352.182    71.453437   -18114.966   -18043.513 
 4759000    154.19869    178.36069       0.4759   -5.8530075     3.941565    3.9855784     3.043985   -36570.428    72357.084     71.37025   -18115.186   -18043.816 
 4760000    146.00192    178.37277        0.476    3.7126029    4.9385004    4.9797539    4.4542697   -47908.413    72361.987    68.319905   -18115.567   -18047.247 
 4761000    140.46658    178.38486       0.4761   -3.9954844    5.4841606    5.5183941    5.2854805   -54293.451     72366.89    66.259983   -18113.599    -18047.34 
 4762000    161.21729    178.39694       0.4762    4.2530147    3.6602404    3.6853004    2.5292049   -32915.819    72371.792    73.982153   -18116.862    -18042.88 
 4763000    147.53293    178.40903       0.4763   -4.3213891    3.7193338    3.7448126    2.7003067    -33881.51    72376.695    68.889656   -18112.699   -18043.809 
 4764000    155.45824    178.42111       0.4764    1.8039223    4.8276657     4.857653    4.2603386   -46485.524    72381.597    71.838979   -18118.117   -18046.278 
 4765000    136.03672     178.4332       0.4765   -2.1928942    5.5293482    5.5611146    5.3061352   -54655.327      72386.5    64.611454   -18112.249   -18047.638 
 4766000    168.41329    178.44528       0.4766    2.9726524    3.9615247    3.9727802     2.960563   -36316.226    72391.402     76.66007   -18118.925   -18042.265 
 4767000    145.12839    178.45737       0.4767    -2.562076    3.5714619    3.5995537    2.4440477   -32050.211    72396.305    67.994829   -18111.099   -18043.104 
 4768000    160.88034    178.46945       0.4768    1.8646068    4.7017917    4.6956981    4.0859825   -44944.908    72401.208    73.856759   -18118.572   -18044.715 
 4769000    130.82752    178.48154       0.4769   -2.5127366    5.4943686    5.5342279    5.2976069   -54420.678     72406.11    62.672905   -18110.356   -18047.683 
 4770000    167.07025    178.49362        0.477   0.56058212    4.1878788    4.2120129    3.3536349   -39178.422    72411.013    76.160274   -18118.522   -18042.362 
 4771000    144.99662    178.50571       0.4771   -1.2539507    3.4440393    3.5230565    2.3503918   -31058.292    72415.915    67.945792   -18110.541   -18042.595 
 4772000    163.44893    178.51779       0.4772    1.1684227    4.4854463    4.5465978    3.8678636   -42999.692    72420.818    74.812634   -18118.207   -18043.395 
 4773000     132.7546    178.52988       0.4773  -0.87831797    5.4444363    5.4943558    5.2590937   -53992.953     72425.72    63.390049   -18110.745   -18047.355 
 4774000    160.94803    178.54196       0.4774   -1.3509817    4.4608909    4.5398145    3.7800543   -42602.532    72430.623    73.881949   -18116.763   -18042.882 
 4775000    143.22602    178.55405       0.4775  -0.68100703    3.4022741    3.4773288    2.3297685   -30697.904    72435.526    67.286883   -18109.992   -18042.705 
 4776000    161.47586    178.56613       0.4776    1.0143448    4.3135808    4.3646438     3.592755   -40903.265    72440.428    74.078377   -18116.858   -18042.779 
 4777000    134.15039    178.57822       0.4777  -0.36634614    5.3532656    5.3905225    5.1034468   -52824.116    72445.331    63.909478   -18110.522   -18046.612 
 4778000    158.53391     178.5903       0.4778    1.6291728    4.7167487    4.7594997    4.1811228   -45524.571    72450.233    72.983557   -18115.858   -18042.874 
 4779000    145.90559    178.60239       0.4779   -1.0260111    3.5120655    3.5299289    2.4104833   -31508.259    72455.136    68.284057   -18110.112   -18041.827 
 4780000    162.90189    178.61447        0.478  -0.52408762    4.1712228     4.177786    3.3514739   -39001.609    72460.038    74.609057   -18116.566   -18041.957 
 4781000    136.43813    178.62656       0.4781  -0.69097483    5.2409914    5.2584987    4.9323149    -51439.35    72464.941    64.760836   -18110.774   -18046.013 
 4782000    151.95042    178.63864       0.4782   0.29209676    4.9379236     4.954863    4.4651859   -47859.908    72469.844    70.533579   -18113.928   -18043.395 
 4783000    154.03858    178.65073       0.4783 -0.099311625    3.5845846     3.603356    2.4857779   -32245.728    72474.746    71.310668   -18112.354   -18041.043 
 4784000    156.61546    178.66281       0.4784   0.24852094    3.9958725    4.0231309    3.1108226    -37099.42    72479.649    72.269628   -18113.488   -18041.219 
 4785000    142.08626     178.6749       0.4785   0.23770183    5.1005276     5.092944    4.7567678   -49834.131    72484.551    66.862733   -18111.724   -18044.861 
 4786000    146.97356    178.68698       0.4786  -0.25602898    5.0759775    5.1425533    4.7094733   -49760.014    72489.454     68.68149   -18112.418   -18043.736 
 4787000    156.16838    178.69907       0.4787    0.4341111    3.6876577    3.7300874     2.701642   -33731.291    72494.356    72.103249   -18112.746   -18040.642 
 4788000    153.40849    178.71115       0.4788    -2.850309    3.7697187      3.82032    2.8626213     -34842.2    72499.259    71.076186   -18111.969   -18040.893 
 4789000    148.40854    178.72324       0.4789    2.6428888    4.9558023    5.0085816    4.5303229   -48315.689    72504.162    69.215503    -18112.75   -18043.534 
 4790000    141.69998    178.73532        0.479  -0.74273395    5.1921433    5.2638244    4.8859656   -51139.778    72509.064    66.718981   -18110.486   -18043.767 
 4791000    163.47344    178.74741       0.4791   0.35125521    3.8766572    3.9212648    2.9255496   -35744.905    72513.967    74.821757   -18114.859   -18040.038 
 4792000    151.36976    178.75949       0.4792   -2.0068846    3.7759475    3.7647041    2.8009928   -34472.148    72518.869    70.317492   -18110.824   -18040.507 
 4793000    153.48621    178.77157       0.4793    1.8362605    4.7791219    4.7902142    4.2281242   -45991.534    72523.772    71.105109   -18113.715    -18042.61 
 4794000    137.22345    178.78366       0.4794   -1.9809853    5.3078359     5.349664     5.050316   -52359.386    72528.674    65.053084   -18109.082   -18044.028 
 4795000    161.51276    178.79574       0.4795     1.837966    4.0704378    4.1167099    3.1698119   -37856.532    72533.577    74.092109   -18113.771   -18039.679 
 4796000    145.67793    178.80783       0.4796   -1.4311769    3.6655797      3.65886    2.6276055   -33173.484     72538.48    68.199336   -18108.217   -18040.017 
 4797000    158.60186    178.81991       0.4797    3.0324789    4.6514091    4.5974763    3.9760287   -44083.047    72543.382    73.008848    -18114.37   -18041.361 
 4798000    135.93431      178.832       0.4798   -2.4916726    5.4280753    5.3985664    5.1583711   -53283.376    72548.285    64.573345   -18108.431   -18043.858 
 4799000    161.54345    178.84408       0.4799    1.8137345    4.2403621     4.289208    3.5073182   -40122.961    72553.187    74.103529   -18113.696   -18039.593 
 4800000    145.72409    178.85617         0.48   -1.7322736    3.6282386    3.6864588    2.6304768   -33150.581     72558.09    68.216513   -18107.655   -18039.439 
 4801000    160.42061    178.86825       0.4801    2.8476204    4.3697164    4.3849605    3.6378234   -41308.335    72562.992    73.685675   -18113.818   -18040.133 
 4802000     134.0312    178.88034       0.4802   -1.5416292    5.3928866    5.3932918    5.1568749   -53143.511    72567.895    63.865121   -18107.313   -18043.448 
 4803000    158.83447    178.89242       0.4803   0.41858401    4.3813465    4.4785697    3.7065553   -41888.238    72572.798    73.095409   -18112.993   -18039.897 
 4804000    144.78725    178.90451       0.4804  -0.19637433    3.7267785    3.7831217    2.7329288   -34142.763      72577.7    67.867878   -18106.999   -18039.131 
 4805000    160.39225    178.91659       0.4805    2.2731924    4.1536634    4.1457934    3.2774845   -38589.804    72582.603    73.675121    -18112.73   -18039.055 
 4806000    137.43346    178.92868       0.4806   -3.1440315    5.3468734    5.3661097    5.1367746   -52832.526    72587.505     65.13124   -18107.459   -18042.328 
 4807000    155.58245    178.94076       0.4807    2.6501078    4.5385825    4.5181027    3.8983033   -43183.295    72592.408    71.885204   -18111.421   -18039.536 
 4808000    147.26995    178.95285       0.4808   -1.6505921    3.7691841    3.7997715     2.829105   -34660.202    72597.311    68.791788   -18107.387   -18038.595 
 4809000    158.95304    178.96493       0.4809    1.6507859    3.9524485    4.0134876    3.0880753   -36846.705    72602.213    73.139533   -18111.991   -18038.852 
 4810000    141.62201    178.97702        0.481   -2.6563483    5.2723813    5.3059353    5.0254277   -52012.481    72607.116    66.689965   -18108.655   -18041.965 
 4811000    151.27808     178.9891       0.4811     2.072498    4.7115061    4.7235084    4.1049448   -45133.198    72612.018    70.283374    -18110.13   -18039.846 
 4812000    153.13885    179.00119       0.4812   -1.1760931    3.9547832    3.9839572    3.0449854   -36612.419    72616.921     70.97584   -18108.617   -18037.641 
 4813000    155.79419    179.01327       0.4813    1.7712916    3.7849434    3.8530049    2.8411421   -34930.301    72621.823    71.964001   -18109.678   -18037.714 
 4814000    142.33871    179.02536       0.4814   -1.9056532    5.1659493    5.1523286    4.8107857   -50430.212    72626.726    66.956677   -18107.913   -18040.956 
 4815000    146.56937    179.03744       0.4815    3.1062784     4.835256    4.8751887    4.3096413    -46733.62    72631.629    68.531074   -18108.931     -18040.4 
 4816000    152.59306    179.04953       0.4816   -2.1909611    4.0596424    4.1590582    3.2488137   -38225.048    72636.531     70.77273   -18108.308   -18037.536 
 4817000    152.71815    179.06161       0.4817    1.8734839     3.708015     3.671554    2.6226388   -33340.693    72641.434    70.819282   -18108.159    -18037.34 
 4818000    148.73982     179.0737       0.4818   -2.5969938    5.0541572    5.0733066    4.6505579   -49260.072    72646.336    69.338786   -18108.991   -18039.652 
 4819000    143.11587    179.08578       0.4819    3.0520656    4.9203693    4.9388374    4.4698837   -47763.635    72651.239    67.245891   -18107.457   -18040.211 
 4820000    153.96309    179.09787        0.482   -3.0284736    4.2930314    4.2909297    3.5081195   -40306.935    72656.141    71.282574   -18108.537   -18037.255 
 4821000    147.82193    179.10995       0.4821    2.2403591    3.6504585    3.5930629    2.5232302   -32555.839    72661.044    68.997202   -18106.206   -18037.209 
 4822000    152.08542    179.12204       0.4822   -2.8756484    4.8540365    4.8613555    4.3914209    -47022.71    72665.947    70.583817    -18109.33   -18038.746 
 4823000     140.7736    179.13412       0.4823    2.6104357    4.9589986    4.9147714    4.4898274   -47878.658    72670.849    66.374238   -18106.419   -18040.045 
 4824000    158.75219    179.14621       0.4824   -3.0070838    4.4482489    4.4972077    3.7685218   -42379.928    72675.752    73.064788   -18109.871   -18036.807 
 4825000     149.4337    179.15829       0.4825    2.6874927    3.5408227    3.5871446     2.498781   -32089.161    72680.654    69.597006   -18106.014   -18036.417 
 4826000    154.07114    179.17038       0.4826   -1.2307571    4.6711277    4.7051926    4.1368242   -45043.815    72685.557    71.322784   -18108.998   -18037.675 
 4827000    141.12875    179.18246       0.4827    1.0471397    4.9818279    5.0100981    4.5423707   -48447.656    72690.459    66.506402   -18106.345   -18039.839 
 4828000    155.63582    179.19455       0.4828   -1.2946347    4.5784033    4.6469339    3.9945815   -44066.396    72695.362    71.905065   -18108.739   -18036.834 
 4829000    149.60382    179.20663       0.4829    1.8259156    3.5488386    3.5811861    2.5129641   -32143.296    72700.265    69.660316    -18105.64   -18035.979 
 4830000    154.17722    179.21872        0.483   -1.5937006    4.5781124    4.5376492     3.915574   -43437.785    72705.167    71.362259   -18107.945   -18036.583 
 4831000    141.97809     179.2308       0.4831    3.1274879     5.026656    5.0449378    4.6017814   -48911.251     72710.07    66.822476   -18105.932   -18039.109 
 4832000    153.49715    179.24289       0.4832   -1.7899651    4.7197333    4.7448231    4.1264176   -45303.247    72714.972    71.109181   -18108.043   -18036.934 
 4833000    150.93779    179.25497       0.4833    3.0162377    3.6638038    3.7164498    2.5871775    -33224.77    72719.875     70.15674   -18105.902   -18035.745 
 4834000     157.5579    179.26705       0.4834   -2.0930074    4.3662866    4.3469744    3.6859173   -41330.594    72724.777    72.620346   -18108.666   -18036.046 
 4835000    139.21177    179.27914       0.4835    2.0644213    4.9923817    4.9690071    4.5616664   -48410.184     72729.68    65.793019   -18104.311   -18038.518 
 4836000    148.96447    179.29122       0.4836   -2.1144445    4.8168327    4.8409254    4.3312489   -46630.024    72734.583     69.42239   -18106.208   -18036.785 
 4837000     150.5829    179.30331       0.4837   0.68285902    3.7302398    3.7689513    2.7066933   -34019.615    72739.485     70.02467   -18105.042   -18035.018 
 4838000    152.18988    179.31539       0.4838  -0.11562323    4.1601519    4.1906479    3.3432668   -38980.222    72744.388    70.622691   -18106.071   -18035.449 
 4839000    142.95906    179.32748       0.4839    1.8051241    4.8851277    4.9041882    4.3949206   -47280.788     72749.29    67.187537    -18105.08   -18037.892 
 4840000    146.37431    179.33956        0.484   -1.4225689    4.9428458    4.9805782    4.5406899   -48213.713    72754.193    68.458484   -18105.334   -18036.875 
 4841000    155.13091    179.35165       0.4841   0.91537231    3.8562657    3.8893662    2.9471252   -35642.523    72759.095    71.717166    -18106.14   -18034.423 
 4842000    151.56254    179.36373       0.4842  0.086596492    4.0120792    4.0795554    3.1660325   -37525.557    72763.998    70.389235   -18105.037   -18034.648 
 4843000    147.43665    179.37582       0.4843    1.2695538    4.7962841    4.8869639    4.3044472   -46625.651    72768.901    68.853826   -18105.707   -18036.854 
 4844000    145.28108     179.3879       0.4844  -0.48532258    4.9678509    5.0152298    4.5965306   -48598.704    72773.803    68.051653   -18105.139   -18037.088 
 4845000    158.17197    179.39999       0.4845   -1.1227965    4.0550397    4.0726636    3.2120662   -37799.232    72778.706    72.848866   -18107.282   -18034.433 
 4846000    150.20271    179.41207       0.4846    1.1174313    3.8628374    3.9257459    3.0088412   -35991.415    72783.608    69.883186   -18104.433    -18034.55 
 4847000    151.39187    179.42416       0.4847   -1.1514308    4.6748063    4.7743371    4.1786074   -45425.836    72788.511    70.325722   -18106.969   -18036.644 
 4848000    141.76525    179.43624       0.4848  -0.74275188    5.0114405    5.0681574    4.6334305   -49043.428    72793.413    66.743272   -18104.508   -18037.765 
 4849000    155.97625    179.44833       0.4849  -0.38577666    4.1807464     4.238917     3.444065   -39545.761    72798.316    72.031753   -18106.716   -18034.685 
 4850000    148.81269    179.46041        0.485  -0.01509368    3.7581105    3.8592203    2.9065558   -35079.622    72803.219    69.365905   -18103.375   -18034.009 
 4851000    155.70079     179.4725       0.4851    1.1563249    4.6116268    4.6387645    4.0601523   -44368.479    72808.121    71.929241   -18106.918   -18034.989 
 4852000    141.53546    179.48458       0.4852  -0.57823573    4.9720241    5.0483356    4.5892077   -48698.558    72813.024    66.657756   -18103.504   -18036.846 
 4853000    156.27127    179.49667       0.4853   0.30277141    4.3596458    4.4442808    3.7781228   -41940.165    72817.926    72.141539   -18106.821   -18034.679 
 4854000    150.55639    179.50875       0.4854   0.57075607     3.736572    3.7897723    2.7906207   -34389.883    72822.829    70.014804   -18104.344   -18034.329 
 4855000    157.52429    179.52084       0.4855  -0.85885716    4.4658226    4.5171278    3.9388878   -43072.794    72827.731     72.60784   -18107.416   -18034.808 
 4856000    140.59748    179.53292       0.4856  -0.24873917    4.9774876    5.0313896    4.5949074   -48679.282    72832.634    66.308696   -18102.829   -18036.521 
 4857000    156.56746    179.54501       0.4857   -0.7583624    4.5201664    4.5922247    3.9147924   -43423.945    72837.537    72.251763   -18106.342   -18034.091 
 4858000    150.26798    179.55709       0.4858    1.1192805    3.7230143    3.8669847    2.8115456   -34671.815    72842.439    69.907475   -18103.362   -18033.454 
 4859000    155.30463    179.56918       0.4859   -1.4638781    4.3197553    4.4542879    3.6852893   -41531.108    72847.342    71.781817   -18106.227   -18034.445 
 4860000    144.77874    179.58126        0.486   -0.0104533    4.8975151    4.9939951    4.5056998     -47990.7    72852.244    67.864711   -18104.716   -18036.851 
 4861000    151.35546    179.59335       0.4861  -0.61569803    4.6882082    4.7772134    4.2453677   -45702.631    72857.147    70.312173   -18105.221   -18034.909 
 4862000    152.61189    179.60543       0.4862  0.033648625    3.8245577    3.8654041    2.9453686   -35451.101    72862.049    70.779738   -18103.826   -18033.046 
 4863000    155.27535    179.61752       0.4863   0.21295447    4.1573518    4.2157369    3.4095714   -39275.534    72866.952    71.770919   -18104.874   -18033.103 
