Fe BCC with Lattice parameter of 2.850000

4322 atoms
2 atom types
0.00000000 19.95000000 xlo xhi
0.00000000 19.95000000 ylo yhi
0.00000000 119.70000000 zlo zhi

Masses

1 55.8
2 12.0

Atoms #atomic

1 1 0.00000000 0.00000000 0.00000000
2 1 1.42500000 1.42500000 1.42500000
3 1 2.85000000 0.00000000 0.00000000
4 1 4.27500000 1.42500000 1.42500000
5 1 5.70000000 0.00000000 0.00000000
6 1 7.12500000 1.42500000 1.42500000
7 1 8.55000000 0.00000000 0.00000000
8 1 9.97500000 1.42500000 1.42500000
9 1 11.40000000 0.00000000 0.00000000
10 1 12.82500000 1.42500000 1.42500000
11 1 14.25000000 0.00000000 0.00000000
12 1 15.67500000 1.42500000 1.42500000
13 1 17.10000000 0.00000000 0.00000000
14 1 18.52500000 1.42500000 1.42500000
15 1 0.00000000 2.85000000 0.00000000
16 1 1.42500000 4.27500000 1.42500000
17 1 2.85000000 2.85000000 0.00000000
18 1 4.27500000 4.27500000 1.42500000
19 1 5.70000000 2.85000000 0.00000000
20 1 7.12500000 4.27500000 1.42500000
21 1 8.55000000 2.85000000 0.00000000
22 1 9.97500000 4.27500000 1.42500000
23 1 11.40000000 2.85000000 0.00000000
24 1 12.82500000 4.27500000 1.42500000
25 1 14.25000000 2.85000000 0.00000000
26 1 15.67500000 4.27500000 1.42500000
27 1 17.10000000 2.85000000 0.00000000
28 1 18.52500000 4.27500000 1.42500000
29 1 0.00000000 5.70000000 0.00000000
30 1 1.42500000 7.12500000 1.42500000
31 1 2.85000000 5.70000000 0.00000000
32 1 4.27500000 7.12500000 1.42500000
33 1 5.70000000 5.70000000 0.00000000
34 1 7.12500000 7.12500000 1.42500000
35 1 8.55000000 5.70000000 0.00000000
36 1 9.97500000 7.12500000 1.42500000
37 1 11.40000000 5.70000000 0.00000000
38 1 12.82500000 7.12500000 1.42500000
39 1 14.25000000 5.70000000 0.00000000
40 1 15.67500000 7.12500000 1.42500000
41 1 17.10000000 5.70000000 0.00000000
42 1 18.52500000 7.12500000 1.42500000
43 1 0.00000000 8.55000000 0.00000000
44 1 1.42500000 9.97500000 1.42500000
45 1 2.85000000 8.55000000 0.00000000
46 1 4.27500000 9.97500000 1.42500000
47 1 5.70000000 8.55000000 0.00000000
48 1 7.12500000 9.97500000 1.42500000
49 1 8.55000000 8.55000000 0.00000000
50 1 9.97500000 9.97500000 1.42500000
51 1 11.40000000 8.55000000 0.00000000
52 1 12.82500000 9.97500000 1.42500000
53 1 14.25000000 8.55000000 0.00000000
54 1 15.67500000 9.97500000 1.42500000
55 1 17.10000000 8.55000000 0.00000000
56 1 18.52500000 9.97500000 1.42500000
57 1 0.00000000 11.40000000 0.00000000
58 1 1.42500000 12.82500000 1.42500000
59 1 2.85000000 11.40000000 0.00000000
60 1 4.27500000 12.82500000 1.42500000
61 1 5.70000000 11.40000000 0.00000000
62 1 7.12500000 12.82500000 1.42500000
63 1 8.55000000 11.40000000 0.00000000
64 1 9.97500000 12.82500000 1.42500000
65 1 11.40000000 11.40000000 0.00000000
66 1 12.82500000 12.82500000 1.42500000
67 1 14.25000000 11.40000000 0.00000000
68 1 15.67500000 12.82500000 1.42500000
69 1 17.10000000 11.40000000 0.00000000
70 1 18.52500000 12.82500000 1.42500000
71 1 0.00000000 14.25000000 0.00000000
72 1 1.42500000 15.67500000 1.42500000
73 1 2.85000000 14.25000000 0.00000000
74 1 4.27500000 15.67500000 1.42500000
75 1 5.70000000 14.25000000 0.00000000
76 1 7.12500000 15.67500000 1.42500000
77 1 8.55000000 14.25000000 0.00000000
78 1 9.97500000 15.67500000 1.42500000
79 1 11.40000000 14.25000000 0.00000000
80 1 12.82500000 15.67500000 1.42500000
81 1 14.25000000 14.25000000 0.00000000
82 1 15.67500000 15.67500000 1.42500000
83 1 17.10000000 14.25000000 0.00000000
84 1 18.52500000 15.67500000 1.42500000
85 1 0.00000000 17.10000000 0.00000000
86 1 1.42500000 18.52500000 1.42500000
87 1 2.85000000 17.10000000 0.00000000
88 1 4.27500000 18.52500000 1.42500000
89 1 5.70000000 17.10000000 0.00000000
90 1 7.12500000 18.52500000 1.42500000
91 1 8.55000000 17.10000000 0.00000000
92 1 9.97500000 18.52500000 1.42500000
93 1 11.40000000 17.10000000 0.00000000
94 1 12.82500000 18.52500000 1.42500000
95 1 14.25000000 17.10000000 0.00000000
96 1 15.67500000 18.52500000 1.42500000
97 1 17.10000000 17.10000000 0.00000000
98 1 18.52500000 18.52500000 1.42500000
99 1 0.00000000 0.00000000 2.85000000
100 1 1.42500000 1.42500000 4.27500000
101 1 2.85000000 0.00000000 2.85000000
102 1 4.27500000 1.42500000 4.27500000
103 1 5.70000000 0.00000000 2.85000000
104 1 7.12500000 1.42500000 4.27500000
105 1 8.55000000 0.00000000 2.85000000
106 1 9.97500000 1.42500000 4.27500000
107 1 11.40000000 0.00000000 2.85000000
108 1 12.82500000 1.42500000 4.27500000
109 1 14.25000000 0.00000000 2.85000000
110 1 15.67500000 1.42500000 4.27500000
111 1 17.10000000 0.00000000 2.85000000
112 1 18.52500000 1.42500000 4.27500000
113 1 0.00000000 2.85000000 2.85000000
114 1 1.42500000 4.27500000 4.27500000
115 1 2.85000000 2.85000000 2.85000000
116 1 4.27500000 4.27500000 4.27500000
117 1 5.70000000 2.85000000 2.85000000
118 1 7.12500000 4.27500000 4.27500000
119 1 8.55000000 2.85000000 2.85000000
120 1 9.97500000 4.27500000 4.27500000
121 1 11.40000000 2.85000000 2.85000000
122 1 12.82500000 4.27500000 4.27500000
123 1 14.25000000 2.85000000 2.85000000
124 1 15.67500000 4.27500000 4.27500000
125 1 17.10000000 2.85000000 2.85000000
126 1 18.52500000 4.27500000 4.27500000
127 1 0.00000000 5.70000000 2.85000000
128 1 1.42500000 7.12500000 4.27500000
129 1 2.85000000 5.70000000 2.85000000
130 1 4.27500000 7.12500000 4.27500000
131 1 5.70000000 5.70000000 2.85000000
132 1 7.12500000 7.12500000 4.27500000
133 1 8.55000000 5.70000000 2.85000000
134 1 9.97500000 7.12500000 4.27500000
135 1 11.40000000 5.70000000 2.85000000
136 1 12.82500000 7.12500000 4.27500000
137 1 14.25000000 5.70000000 2.85000000
138 1 15.67500000 7.12500000 4.27500000
139 1 17.10000000 5.70000000 2.85000000
140 1 18.52500000 7.12500000 4.27500000
141 1 0.00000000 8.55000000 2.85000000
142 1 1.42500000 9.97500000 4.27500000
143 1 2.85000000 8.55000000 2.85000000
144 1 4.27500000 9.97500000 4.27500000
145 1 5.70000000 8.55000000 2.85000000
146 1 7.12500000 9.97500000 4.27500000
147 1 8.55000000 8.55000000 2.85000000
148 1 9.97500000 9.97500000 4.27500000
149 1 11.40000000 8.55000000 2.85000000
150 1 12.82500000 9.97500000 4.27500000
151 1 14.25000000 8.55000000 2.85000000
152 1 15.67500000 9.97500000 4.27500000
153 1 17.10000000 8.55000000 2.85000000
154 1 18.52500000 9.97500000 4.27500000
155 1 0.00000000 11.40000000 2.85000000
156 1 1.42500000 12.82500000 4.27500000
157 1 2.85000000 11.40000000 2.85000000
158 1 4.27500000 12.82500000 4.27500000
159 1 5.70000000 11.40000000 2.85000000
160 1 7.12500000 12.82500000 4.27500000
161 1 8.55000000 11.40000000 2.85000000
162 1 9.97500000 12.82500000 4.27500000
163 1 11.40000000 11.40000000 2.85000000
164 1 12.82500000 12.82500000 4.27500000
165 1 14.25000000 11.40000000 2.85000000
166 1 15.67500000 12.82500000 4.27500000
167 1 17.10000000 11.40000000 2.85000000
168 1 18.52500000 12.82500000 4.27500000
169 1 0.00000000 14.25000000 2.85000000
170 1 1.42500000 15.67500000 4.27500000
171 1 2.85000000 14.25000000 2.85000000
172 1 4.27500000 15.67500000 4.27500000
173 1 5.70000000 14.25000000 2.85000000
174 1 7.12500000 15.67500000 4.27500000
175 1 8.55000000 14.25000000 2.85000000
176 1 9.97500000 15.67500000 4.27500000
177 1 11.40000000 14.25000000 2.85000000
178 1 12.82500000 15.67500000 4.27500000
179 1 14.25000000 14.25000000 2.85000000
180 1 15.67500000 15.67500000 4.27500000
181 1 17.10000000 14.25000000 2.85000000
182 1 18.52500000 15.67500000 4.27500000
183 1 0.00000000 17.10000000 2.85000000
184 1 1.42500000 18.52500000 4.27500000
185 1 2.85000000 17.10000000 2.85000000
186 1 4.27500000 18.52500000 4.27500000
187 1 5.70000000 17.10000000 2.85000000
188 1 7.12500000 18.52500000 4.27500000
189 1 8.55000000 17.10000000 2.85000000
190 1 9.97500000 18.52500000 4.27500000
191 1 11.40000000 17.10000000 2.85000000
192 1 12.82500000 18.52500000 4.27500000
193 1 14.25000000 17.10000000 2.85000000
194 1 15.67500000 18.52500000 4.27500000
195 1 17.10000000 17.10000000 2.85000000
196 1 18.52500000 18.52500000 4.27500000
197 1 0.00000000 0.00000000 5.70000000
198 1 1.42500000 1.42500000 7.12500000
199 1 2.85000000 0.00000000 5.70000000
200 1 4.27500000 1.42500000 7.12500000
201 1 5.70000000 0.00000000 5.70000000
202 1 7.12500000 1.42500000 7.12500000
203 1 8.55000000 0.00000000 5.70000000
204 1 9.97500000 1.42500000 7.12500000
205 1 11.40000000 0.00000000 5.70000000
206 1 12.82500000 1.42500000 7.12500000
207 1 14.25000000 0.00000000 5.70000000
208 1 15.67500000 1.42500000 7.12500000
209 1 17.10000000 0.00000000 5.70000000
210 1 18.52500000 1.42500000 7.12500000
211 1 0.00000000 2.85000000 5.70000000
212 1 1.42500000 4.27500000 7.12500000
213 1 2.85000000 2.85000000 5.70000000
214 1 4.27500000 4.27500000 7.12500000
215 1 5.70000000 2.85000000 5.70000000
216 1 7.12500000 4.27500000 7.12500000
217 1 8.55000000 2.85000000 5.70000000
218 1 9.97500000 4.27500000 7.12500000
219 1 11.40000000 2.85000000 5.70000000
220 1 12.82500000 4.27500000 7.12500000
221 1 14.25000000 2.85000000 5.70000000
222 1 15.67500000 4.27500000 7.12500000
223 1 17.10000000 2.85000000 5.70000000
224 1 18.52500000 4.27500000 7.12500000
225 1 0.00000000 5.70000000 5.70000000
226 1 1.42500000 7.12500000 7.12500000
227 1 2.85000000 5.70000000 5.70000000
228 1 4.27500000 7.12500000 7.12500000
229 1 5.70000000 5.70000000 5.70000000
230 1 7.12500000 7.12500000 7.12500000
231 1 8.55000000 5.70000000 5.70000000
232 1 9.97500000 7.12500000 7.12500000
233 1 11.40000000 5.70000000 5.70000000
234 1 12.82500000 7.12500000 7.12500000
235 1 14.25000000 5.70000000 5.70000000
236 1 15.67500000 7.12500000 7.12500000
237 1 17.10000000 5.70000000 5.70000000
238 1 18.52500000 7.12500000 7.12500000
239 1 0.00000000 8.55000000 5.70000000
240 1 1.42500000 9.97500000 7.12500000
241 1 2.85000000 8.55000000 5.70000000
242 1 4.27500000 9.97500000 7.12500000
243 1 5.70000000 8.55000000 5.70000000
244 1 7.12500000 9.97500000 7.12500000
245 1 8.55000000 8.55000000 5.70000000
246 1 9.97500000 9.97500000 7.12500000
247 1 11.40000000 8.55000000 5.70000000
248 1 12.82500000 9.97500000 7.12500000
249 1 14.25000000 8.55000000 5.70000000
250 1 15.67500000 9.97500000 7.12500000
251 1 17.10000000 8.55000000 5.70000000
252 1 18.52500000 9.97500000 7.12500000
253 1 0.00000000 11.40000000 5.70000000
254 1 1.42500000 12.82500000 7.12500000
255 1 2.85000000 11.40000000 5.70000000
256 1 4.27500000 12.82500000 7.12500000
257 1 5.70000000 11.40000000 5.70000000
258 1 7.12500000 12.82500000 7.12500000
259 1 8.55000000 11.40000000 5.70000000
260 1 9.97500000 12.82500000 7.12500000
261 1 11.40000000 11.40000000 5.70000000
262 1 12.82500000 12.82500000 7.12500000
263 1 14.25000000 11.40000000 5.70000000
264 1 15.67500000 12.82500000 7.12500000
265 1 17.10000000 11.40000000 5.70000000
266 1 18.52500000 12.82500000 7.12500000
267 1 0.00000000 14.25000000 5.70000000
268 1 1.42500000 15.67500000 7.12500000
269 1 2.85000000 14.25000000 5.70000000
270 1 4.27500000 15.67500000 7.12500000
271 1 5.70000000 14.25000000 5.70000000
272 1 7.12500000 15.67500000 7.12500000
273 1 8.55000000 14.25000000 5.70000000
274 1 9.97500000 15.67500000 7.12500000
275 1 11.40000000 14.25000000 5.70000000
276 1 12.82500000 15.67500000 7.12500000
277 1 14.25000000 14.25000000 5.70000000
278 1 15.67500000 15.67500000 7.12500000
279 1 17.10000000 14.25000000 5.70000000
280 1 18.52500000 15.67500000 7.12500000
281 1 0.00000000 17.10000000 5.70000000
282 1 1.42500000 18.52500000 7.12500000
283 1 2.85000000 17.10000000 5.70000000
284 1 4.27500000 18.52500000 7.12500000
285 1 5.70000000 17.10000000 5.70000000
286 1 7.12500000 18.52500000 7.12500000
287 1 8.55000000 17.10000000 5.70000000
288 1 9.97500000 18.52500000 7.12500000
289 1 11.40000000 17.10000000 5.70000000
290 1 12.82500000 18.52500000 7.12500000
291 1 14.25000000 17.10000000 5.70000000
292 1 15.67500000 18.52500000 7.12500000
293 1 17.10000000 17.10000000 5.70000000
294 1 18.52500000 18.52500000 7.12500000
295 1 0.00000000 0.00000000 8.55000000
296 1 1.42500000 1.42500000 9.97500000
297 1 2.85000000 0.00000000 8.55000000
298 1 4.27500000 1.42500000 9.97500000
299 1 5.70000000 0.00000000 8.55000000
300 1 7.12500000 1.42500000 9.97500000
301 1 8.55000000 0.00000000 8.55000000
302 1 9.97500000 1.42500000 9.97500000
303 1 11.40000000 0.00000000 8.55000000
304 1 12.82500000 1.42500000 9.97500000
305 1 14.25000000 0.00000000 8.55000000
306 1 15.67500000 1.42500000 9.97500000
307 1 17.10000000 0.00000000 8.55000000
308 1 18.52500000 1.42500000 9.97500000
309 1 0.00000000 2.85000000 8.55000000
310 1 1.42500000 4.27500000 9.97500000
311 1 2.85000000 2.85000000 8.55000000
312 1 4.27500000 4.27500000 9.97500000
313 1 5.70000000 2.85000000 8.55000000
314 1 7.12500000 4.27500000 9.97500000
315 1 8.55000000 2.85000000 8.55000000
316 1 9.97500000 4.27500000 9.97500000
317 1 11.40000000 2.85000000 8.55000000
318 1 12.82500000 4.27500000 9.97500000
319 1 14.25000000 2.85000000 8.55000000
320 1 15.67500000 4.27500000 9.97500000
321 1 17.10000000 2.85000000 8.55000000
322 1 18.52500000 4.27500000 9.97500000
323 1 0.00000000 5.70000000 8.55000000
324 1 1.42500000 7.12500000 9.97500000
325 1 2.85000000 5.70000000 8.55000000
326 1 4.27500000 7.12500000 9.97500000
327 1 5.70000000 5.70000000 8.55000000
328 1 7.12500000 7.12500000 9.97500000
329 1 8.55000000 5.70000000 8.55000000
330 1 9.97500000 7.12500000 9.97500000
331 1 11.40000000 5.70000000 8.55000000
332 1 12.82500000 7.12500000 9.97500000
333 1 14.25000000 5.70000000 8.55000000
334 1 15.67500000 7.12500000 9.97500000
335 1 17.10000000 5.70000000 8.55000000
336 1 18.52500000 7.12500000 9.97500000
337 1 0.00000000 8.55000000 8.55000000
338 1 1.42500000 9.97500000 9.97500000
339 1 2.85000000 8.55000000 8.55000000
340 1 4.27500000 9.97500000 9.97500000
341 1 5.70000000 8.55000000 8.55000000
342 1 7.12500000 9.97500000 9.97500000
343 1 8.55000000 8.55000000 8.55000000
344 1 9.97500000 9.97500000 9.97500000
345 1 11.40000000 8.55000000 8.55000000
346 1 12.82500000 9.97500000 9.97500000
347 1 14.25000000 8.55000000 8.55000000
348 1 15.67500000 9.97500000 9.97500000
349 1 17.10000000 8.55000000 8.55000000
350 1 18.52500000 9.97500000 9.97500000
351 1 0.00000000 11.40000000 8.55000000
352 1 1.42500000 12.82500000 9.97500000
353 1 2.85000000 11.40000000 8.55000000
354 1 4.27500000 12.82500000 9.97500000
355 1 5.70000000 11.40000000 8.55000000
356 1 7.12500000 12.82500000 9.97500000
357 1 8.55000000 11.40000000 8.55000000
358 1 9.97500000 12.82500000 9.97500000
359 1 11.40000000 11.40000000 8.55000000
360 1 12.82500000 12.82500000 9.97500000
361 1 14.25000000 11.40000000 8.55000000
362 1 15.67500000 12.82500000 9.97500000
363 1 17.10000000 11.40000000 8.55000000
364 1 18.52500000 12.82500000 9.97500000
365 1 0.00000000 14.25000000 8.55000000
366 1 1.42500000 15.67500000 9.97500000
367 1 2.85000000 14.25000000 8.55000000
368 1 4.27500000 15.67500000 9.97500000
369 1 5.70000000 14.25000000 8.55000000
370 1 7.12500000 15.67500000 9.97500000
371 1 8.55000000 14.25000000 8.55000000
372 1 9.97500000 15.67500000 9.97500000
373 1 11.40000000 14.25000000 8.55000000
374 1 12.82500000 15.67500000 9.97500000
375 1 14.25000000 14.25000000 8.55000000
376 1 15.67500000 15.67500000 9.97500000
377 1 17.10000000 14.25000000 8.55000000
378 1 18.52500000 15.67500000 9.97500000
379 1 0.00000000 17.10000000 8.55000000
380 1 1.42500000 18.52500000 9.97500000
381 1 2.85000000 17.10000000 8.55000000
382 1 4.27500000 18.52500000 9.97500000
383 1 5.70000000 17.10000000 8.55000000
384 1 7.12500000 18.52500000 9.97500000
385 1 8.55000000 17.10000000 8.55000000
386 1 9.97500000 18.52500000 9.97500000
387 1 11.40000000 17.10000000 8.55000000
388 1 12.82500000 18.52500000 9.97500000
389 1 14.25000000 17.10000000 8.55000000
390 1 15.67500000 18.52500000 9.97500000
391 1 17.10000000 17.10000000 8.55000000
392 1 18.52500000 18.52500000 9.97500000
393 1 0.00000000 0.00000000 11.40000000
394 1 1.42500000 1.42500000 12.82500000
395 1 2.85000000 0.00000000 11.40000000
396 1 4.27500000 1.42500000 12.82500000
397 1 5.70000000 0.00000000 11.40000000
398 1 7.12500000 1.42500000 12.82500000
399 1 8.55000000 0.00000000 11.40000000
400 1 9.97500000 1.42500000 12.82500000
401 1 11.40000000 0.00000000 11.40000000
402 1 12.82500000 1.42500000 12.82500000
403 1 14.25000000 0.00000000 11.40000000
404 1 15.67500000 1.42500000 12.82500000
405 1 17.10000000 0.00000000 11.40000000
406 1 18.52500000 1.42500000 12.82500000
407 1 0.00000000 2.85000000 11.40000000
408 1 1.42500000 4.27500000 12.82500000
409 1 2.85000000 2.85000000 11.40000000
410 1 4.27500000 4.27500000 12.82500000
411 1 5.70000000 2.85000000 11.40000000
412 1 7.12500000 4.27500000 12.82500000
413 1 8.55000000 2.85000000 11.40000000
414 1 9.97500000 4.27500000 12.82500000
415 1 11.40000000 2.85000000 11.40000000
416 1 12.82500000 4.27500000 12.82500000
417 1 14.25000000 2.85000000 11.40000000
418 1 15.67500000 4.27500000 12.82500000
419 1 17.10000000 2.85000000 11.40000000
420 1 18.52500000 4.27500000 12.82500000
421 1 0.00000000 5.70000000 11.40000000
422 1 1.42500000 7.12500000 12.82500000
423 1 2.85000000 5.70000000 11.40000000
424 1 4.27500000 7.12500000 12.82500000
425 1 5.70000000 5.70000000 11.40000000
426 1 7.12500000 7.12500000 12.82500000
427 1 8.55000000 5.70000000 11.40000000
428 1 9.97500000 7.12500000 12.82500000
429 1 11.40000000 5.70000000 11.40000000
430 1 12.82500000 7.12500000 12.82500000
431 1 14.25000000 5.70000000 11.40000000
432 1 15.67500000 7.12500000 12.82500000
433 1 17.10000000 5.70000000 11.40000000
434 1 18.52500000 7.12500000 12.82500000
435 1 0.00000000 8.55000000 11.40000000
436 1 1.42500000 9.97500000 12.82500000
437 1 2.85000000 8.55000000 11.40000000
438 1 4.27500000 9.97500000 12.82500000
439 1 5.70000000 8.55000000 11.40000000
440 1 7.12500000 9.97500000 12.82500000
441 1 8.55000000 8.55000000 11.40000000
442 1 9.97500000 9.97500000 12.82500000
443 1 11.40000000 8.55000000 11.40000000
444 1 12.82500000 9.97500000 12.82500000
445 1 14.25000000 8.55000000 11.40000000
446 1 15.67500000 9.97500000 12.82500000
447 1 17.10000000 8.55000000 11.40000000
448 1 18.52500000 9.97500000 12.82500000
449 1 0.00000000 11.40000000 11.40000000
450 1 1.42500000 12.82500000 12.82500000
451 1 2.85000000 11.40000000 11.40000000
452 1 4.27500000 12.82500000 12.82500000
453 1 5.70000000 11.40000000 11.40000000
454 1 7.12500000 12.82500000 12.82500000
455 1 8.55000000 11.40000000 11.40000000
456 1 9.97500000 12.82500000 12.82500000
457 1 11.40000000 11.40000000 11.40000000
458 1 12.82500000 12.82500000 12.82500000
459 1 14.25000000 11.40000000 11.40000000
460 1 15.67500000 12.82500000 12.82500000
461 1 17.10000000 11.40000000 11.40000000
462 1 18.52500000 12.82500000 12.82500000
463 1 0.00000000 14.25000000 11.40000000
464 1 1.42500000 15.67500000 12.82500000
465 1 2.85000000 14.25000000 11.40000000
466 1 4.27500000 15.67500000 12.82500000
467 1 5.70000000 14.25000000 11.40000000
468 1 7.12500000 15.67500000 12.82500000
469 1 8.55000000 14.25000000 11.40000000
470 1 9.97500000 15.67500000 12.82500000
471 1 11.40000000 14.25000000 11.40000000
472 1 12.82500000 15.67500000 12.82500000
473 1 14.25000000 14.25000000 11.40000000
474 1 15.67500000 15.67500000 12.82500000
475 1 17.10000000 14.25000000 11.40000000
476 1 18.52500000 15.67500000 12.82500000
477 1 0.00000000 17.10000000 11.40000000
478 1 1.42500000 18.52500000 12.82500000
479 1 2.85000000 17.10000000 11.40000000
480 1 4.27500000 18.52500000 12.82500000
481 1 5.70000000 17.10000000 11.40000000
482 1 7.12500000 18.52500000 12.82500000
483 1 8.55000000 17.10000000 11.40000000
484 1 9.97500000 18.52500000 12.82500000
485 1 11.40000000 17.10000000 11.40000000
486 1 12.82500000 18.52500000 12.82500000
487 1 14.25000000 17.10000000 11.40000000
488 1 15.67500000 18.52500000 12.82500000
489 1 17.10000000 17.10000000 11.40000000
490 1 18.52500000 18.52500000 12.82500000
491 1 0.00000000 0.00000000 14.25000000
492 1 1.42500000 1.42500000 15.67500000
493 1 2.85000000 0.00000000 14.25000000
494 1 4.27500000 1.42500000 15.67500000
495 1 5.70000000 0.00000000 14.25000000
496 1 7.12500000 1.42500000 15.67500000
497 1 8.55000000 0.00000000 14.25000000
498 1 9.97500000 1.42500000 15.67500000
499 1 11.40000000 0.00000000 14.25000000
500 1 12.82500000 1.42500000 15.67500000
501 1 14.25000000 0.00000000 14.25000000
502 1 15.67500000 1.42500000 15.67500000
503 1 17.10000000 0.00000000 14.25000000
504 1 18.52500000 1.42500000 15.67500000
505 1 0.00000000 2.85000000 14.25000000
506 1 1.42500000 4.27500000 15.67500000
507 1 2.85000000 2.85000000 14.25000000
508 1 4.27500000 4.27500000 15.67500000
509 1 5.70000000 2.85000000 14.25000000
510 1 7.12500000 4.27500000 15.67500000
511 1 8.55000000 2.85000000 14.25000000
512 1 9.97500000 4.27500000 15.67500000
513 1 11.40000000 2.85000000 14.25000000
514 1 12.82500000 4.27500000 15.67500000
515 1 14.25000000 2.85000000 14.25000000
516 1 15.67500000 4.27500000 15.67500000
517 1 17.10000000 2.85000000 14.25000000
518 1 18.52500000 4.27500000 15.67500000
519 1 0.00000000 5.70000000 14.25000000
520 1 1.42500000 7.12500000 15.67500000
521 1 2.85000000 5.70000000 14.25000000
522 1 4.27500000 7.12500000 15.67500000
523 1 5.70000000 5.70000000 14.25000000
524 1 7.12500000 7.12500000 15.67500000
525 1 8.55000000 5.70000000 14.25000000
526 1 9.97500000 7.12500000 15.67500000
527 1 11.40000000 5.70000000 14.25000000
528 1 12.82500000 7.12500000 15.67500000
529 1 14.25000000 5.70000000 14.25000000
530 1 15.67500000 7.12500000 15.67500000
531 1 17.10000000 5.70000000 14.25000000
532 1 18.52500000 7.12500000 15.67500000
533 1 0.00000000 8.55000000 14.25000000
534 1 1.42500000 9.97500000 15.67500000
535 1 2.85000000 8.55000000 14.25000000
536 1 4.27500000 9.97500000 15.67500000
537 1 5.70000000 8.55000000 14.25000000
538 1 7.12500000 9.97500000 15.67500000
539 1 8.55000000 8.55000000 14.25000000
540 1 9.97500000 9.97500000 15.67500000
541 1 11.40000000 8.55000000 14.25000000
542 1 12.82500000 9.97500000 15.67500000
543 1 14.25000000 8.55000000 14.25000000
544 1 15.67500000 9.97500000 15.67500000
545 1 17.10000000 8.55000000 14.25000000
546 1 18.52500000 9.97500000 15.67500000
547 1 0.00000000 11.40000000 14.25000000
548 1 1.42500000 12.82500000 15.67500000
549 1 2.85000000 11.40000000 14.25000000
550 1 4.27500000 12.82500000 15.67500000
551 1 5.70000000 11.40000000 14.25000000
552 1 7.12500000 12.82500000 15.67500000
553 1 8.55000000 11.40000000 14.25000000
554 1 9.97500000 12.82500000 15.67500000
555 1 11.40000000 11.40000000 14.25000000
556 1 12.82500000 12.82500000 15.67500000
557 1 14.25000000 11.40000000 14.25000000
558 1 15.67500000 12.82500000 15.67500000
559 1 17.10000000 11.40000000 14.25000000
560 1 18.52500000 12.82500000 15.67500000
561 1 0.00000000 14.25000000 14.25000000
562 1 1.42500000 15.67500000 15.67500000
563 1 2.85000000 14.25000000 14.25000000
564 1 4.27500000 15.67500000 15.67500000
565 1 5.70000000 14.25000000 14.25000000
566 1 7.12500000 15.67500000 15.67500000
567 1 8.55000000 14.25000000 14.25000000
568 1 9.97500000 15.67500000 15.67500000
569 1 11.40000000 14.25000000 14.25000000
570 1 12.82500000 15.67500000 15.67500000
571 1 14.25000000 14.25000000 14.25000000
572 1 15.67500000 15.67500000 15.67500000
573 1 17.10000000 14.25000000 14.25000000
574 1 18.52500000 15.67500000 15.67500000
575 1 0.00000000 17.10000000 14.25000000
576 1 1.42500000 18.52500000 15.67500000
577 1 2.85000000 17.10000000 14.25000000
578 1 4.27500000 18.52500000 15.67500000
579 1 5.70000000 17.10000000 14.25000000
580 1 7.12500000 18.52500000 15.67500000
581 1 8.55000000 17.10000000 14.25000000
582 1 9.97500000 18.52500000 15.67500000
583 1 11.40000000 17.10000000 14.25000000
584 1 12.82500000 18.52500000 15.67500000
585 1 14.25000000 17.10000000 14.25000000
586 1 15.67500000 18.52500000 15.67500000
587 1 17.10000000 17.10000000 14.25000000
588 1 18.52500000 18.52500000 15.67500000
589 1 0.00000000 0.00000000 17.10000000
590 1 1.42500000 1.42500000 18.52500000
591 1 2.85000000 0.00000000 17.10000000
592 1 4.27500000 1.42500000 18.52500000
593 1 5.70000000 0.00000000 17.10000000
594 1 7.12500000 1.42500000 18.52500000
595 1 8.55000000 0.00000000 17.10000000
596 1 9.97500000 1.42500000 18.52500000
597 1 11.40000000 0.00000000 17.10000000
598 1 12.82500000 1.42500000 18.52500000
599 1 14.25000000 0.00000000 17.10000000
600 1 15.67500000 1.42500000 18.52500000
601 1 17.10000000 0.00000000 17.10000000
602 1 18.52500000 1.42500000 18.52500000
603 1 0.00000000 2.85000000 17.10000000
604 1 1.42500000 4.27500000 18.52500000
605 1 2.85000000 2.85000000 17.10000000
606 1 4.27500000 4.27500000 18.52500000
607 1 5.70000000 2.85000000 17.10000000
608 1 7.12500000 4.27500000 18.52500000
609 1 8.55000000 2.85000000 17.10000000
610 1 9.97500000 4.27500000 18.52500000
611 1 11.40000000 2.85000000 17.10000000
612 1 12.82500000 4.27500000 18.52500000
613 1 14.25000000 2.85000000 17.10000000
614 1 15.67500000 4.27500000 18.52500000
615 1 17.10000000 2.85000000 17.10000000
616 1 18.52500000 4.27500000 18.52500000
617 1 0.00000000 5.70000000 17.10000000
618 1 1.42500000 7.12500000 18.52500000
619 1 2.85000000 5.70000000 17.10000000
620 1 4.27500000 7.12500000 18.52500000
621 1 5.70000000 5.70000000 17.10000000
622 1 7.12500000 7.12500000 18.52500000
623 1 8.55000000 5.70000000 17.10000000
624 1 9.97500000 7.12500000 18.52500000
625 1 11.40000000 5.70000000 17.10000000
626 1 12.82500000 7.12500000 18.52500000
627 1 14.25000000 5.70000000 17.10000000
628 1 15.67500000 7.12500000 18.52500000
629 1 17.10000000 5.70000000 17.10000000
630 1 18.52500000 7.12500000 18.52500000
631 1 0.00000000 8.55000000 17.10000000
632 1 1.42500000 9.97500000 18.52500000
633 1 2.85000000 8.55000000 17.10000000
634 1 4.27500000 9.97500000 18.52500000
635 1 5.70000000 8.55000000 17.10000000
636 1 7.12500000 9.97500000 18.52500000
637 1 8.55000000 8.55000000 17.10000000
638 1 9.97500000 9.97500000 18.52500000
639 1 11.40000000 8.55000000 17.10000000
640 1 12.82500000 9.97500000 18.52500000
641 1 14.25000000 8.55000000 17.10000000
642 1 15.67500000 9.97500000 18.52500000
643 1 17.10000000 8.55000000 17.10000000
644 1 18.52500000 9.97500000 18.52500000
645 1 0.00000000 11.40000000 17.10000000
646 1 1.42500000 12.82500000 18.52500000
647 1 2.85000000 11.40000000 17.10000000
648 1 4.27500000 12.82500000 18.52500000
649 1 5.70000000 11.40000000 17.10000000
650 1 7.12500000 12.82500000 18.52500000
651 1 8.55000000 11.40000000 17.10000000
652 1 9.97500000 12.82500000 18.52500000
653 1 11.40000000 11.40000000 17.10000000
654 1 12.82500000 12.82500000 18.52500000
655 1 14.25000000 11.40000000 17.10000000
656 1 15.67500000 12.82500000 18.52500000
657 1 17.10000000 11.40000000 17.10000000
658 1 18.52500000 12.82500000 18.52500000
659 1 0.00000000 14.25000000 17.10000000
660 1 1.42500000 15.67500000 18.52500000
661 1 2.85000000 14.25000000 17.10000000
662 1 4.27500000 15.67500000 18.52500000
663 1 5.70000000 14.25000000 17.10000000
664 1 7.12500000 15.67500000 18.52500000
665 1 8.55000000 14.25000000 17.10000000
666 1 9.97500000 15.67500000 18.52500000
667 1 11.40000000 14.25000000 17.10000000
668 1 12.82500000 15.67500000 18.52500000
669 1 14.25000000 14.25000000 17.10000000
670 1 15.67500000 15.67500000 18.52500000
671 1 17.10000000 14.25000000 17.10000000
672 1 18.52500000 15.67500000 18.52500000
673 1 0.00000000 17.10000000 17.10000000
674 1 1.42500000 18.52500000 18.52500000
675 1 2.85000000 17.10000000 17.10000000
676 1 4.27500000 18.52500000 18.52500000
677 1 5.70000000 17.10000000 17.10000000
678 1 7.12500000 18.52500000 18.52500000
679 1 8.55000000 17.10000000 17.10000000
680 1 9.97500000 18.52500000 18.52500000
681 1 11.40000000 17.10000000 17.10000000
682 1 12.82500000 18.52500000 18.52500000
683 1 14.25000000 17.10000000 17.10000000
684 1 15.67500000 18.52500000 18.52500000
685 1 17.10000000 17.10000000 17.10000000
686 1 18.52500000 18.52500000 18.52500000
687 1 0.00000000 0.00000000 19.95000000
688 1 1.42500000 1.42500000 21.37500000
689 1 2.85000000 0.00000000 19.95000000
690 1 4.27500000 1.42500000 21.37500000
691 1 5.70000000 0.00000000 19.95000000
692 1 7.12500000 1.42500000 21.37500000
693 1 8.55000000 0.00000000 19.95000000
694 1 9.97500000 1.42500000 21.37500000
695 1 11.40000000 0.00000000 19.95000000
696 1 12.82500000 1.42500000 21.37500000
697 1 14.25000000 0.00000000 19.95000000
698 1 15.67500000 1.42500000 21.37500000
699 1 17.10000000 0.00000000 19.95000000
700 1 18.52500000 1.42500000 21.37500000
701 1 0.00000000 2.85000000 19.95000000
702 1 1.42500000 4.27500000 21.37500000
703 1 2.85000000 2.85000000 19.95000000
704 1 4.27500000 4.27500000 21.37500000
705 1 5.70000000 2.85000000 19.95000000
706 1 7.12500000 4.27500000 21.37500000
707 1 8.55000000 2.85000000 19.95000000
708 1 9.97500000 4.27500000 21.37500000
709 1 11.40000000 2.85000000 19.95000000
710 1 12.82500000 4.27500000 21.37500000
711 1 14.25000000 2.85000000 19.95000000
712 1 15.67500000 4.27500000 21.37500000
713 1 17.10000000 2.85000000 19.95000000
714 1 18.52500000 4.27500000 21.37500000
715 1 0.00000000 5.70000000 19.95000000
716 1 1.42500000 7.12500000 21.37500000
717 1 2.85000000 5.70000000 19.95000000
718 1 4.27500000 7.12500000 21.37500000
719 1 5.70000000 5.70000000 19.95000000
720 1 7.12500000 7.12500000 21.37500000
721 1 8.55000000 5.70000000 19.95000000
722 1 9.97500000 7.12500000 21.37500000
723 1 11.40000000 5.70000000 19.95000000
724 1 12.82500000 7.12500000 21.37500000
725 1 14.25000000 5.70000000 19.95000000
726 1 15.67500000 7.12500000 21.37500000
727 1 17.10000000 5.70000000 19.95000000
728 1 18.52500000 7.12500000 21.37500000
729 1 0.00000000 8.55000000 19.95000000
730 1 1.42500000 9.97500000 21.37500000
731 1 2.85000000 8.55000000 19.95000000
732 1 4.27500000 9.97500000 21.37500000
733 1 5.70000000 8.55000000 19.95000000
734 1 7.12500000 9.97500000 21.37500000
735 1 8.55000000 8.55000000 19.95000000
736 1 9.97500000 9.97500000 21.37500000
737 1 11.40000000 8.55000000 19.95000000
738 1 12.82500000 9.97500000 21.37500000
739 1 14.25000000 8.55000000 19.95000000
740 1 15.67500000 9.97500000 21.37500000
741 1 17.10000000 8.55000000 19.95000000
742 1 18.52500000 9.97500000 21.37500000