LAMMPS (24 Aug 2020)
#-----------------Initialization-----------------------------------------
units 		metal
dimension	3
boundary	p p p
atom_style	atomic

timestep 	0.001
#0.001 pico seconds = 1 femto second

read_data 	datafile
Reading data file ...
  orthogonal box = (0.0000000 0.0000000 0.0000000) to (19.950000 19.950000 119.70000)
  2 by 2 by 10 MPI processor grid
  reading atoms ...
  4322 atoms
  read_data CPU = 0.012 seconds

# ------------------------ FORCE FIELDS ---------------------------------------------
pair_style	meam
pair_coeff	* * Fe3C_library_Liyanage_2014.meam Fe C Fe3C_Liyanage_2014.meam Fe C
neighbor	0.05 bin
neigh_modify	delay 0 every 1 check yes

# -----------------------EQUILIBRATION-----------------------------------------------
reset_timestep	0

min_style	cg
fix		1 all box/relax iso 0.0 vmax 0.001
minimize	1e-25 1e-25 100000 1000000
Neighbor list info ...
  update every 1 steps, delay 0 steps, check yes
  max neighbors/atom: 2000, page size: 100000
  master list distance cutoff = 4.55
  ghost atom cutoff = 4.55
  binsize = 2.275, bins = 9 9 53
  2 neighbor lists, perpetual/occasional/extra = 2 0 0
  (1) pair meam, perpetual
      attributes: full, newton on
      pair build: full/bin/atomonly
      stencil: full/bin/3d
      bin: standard
  (2) pair meam, perpetual, half/full from (1)
      attributes: half, newton on
      pair build: halffull/newton
      stencil: none
      bin: none
Per MPI rank memory allocation (min/avg/max) = 9.847 | 9.863 | 9.886 Mbytes
Step Temp E_pair E_mol TotEng Press Volume 
       0            0   -16602.405            0   -16602.405    280290.67    47640.899 
    6968            0   -18861.988            0   -18861.988 -0.0033298059    49025.736 
Loop time of 26.7116 on 40 procs for 6968 steps with 4322 atoms

90.9% CPU use with 40 MPI tasks x no OpenMP threads

Minimization stats:
  Stopping criterion = energy tolerance
  Energy initial, next-to-last, final = 
     -16602.4052199757  -18861.9883727331  -18861.9883727331
  Force two-norm initial, final = 25017.61553365413 0.0008222515865493893
  Force max component initial, final = 25003.424183833355 0.000357318288788119
  Final line search alpha, max atom move = 0.4915103675990879 0.0001756256434721254
  Iterations, force evaluations = 6968 13614

MPI task timing breakdown:
Section |  min time  |  avg time  |  max time  |%varavg| %total
---------------------------------------------------------------
Pair    | 19.239     | 19.967     | 20.826     |   8.9 | 74.75
Neigh   | 2.6847     | 3.1536     | 3.6955     |  11.7 | 11.81
Comm    | 1.4307     | 2.2692     | 3.1132     |  29.3 |  8.50
Output  | 0          | 0          | 0          |   0.0 |  0.00
Modify  | 0          | 0          | 0          |   0.0 |  0.00
Other   |            | 1.321      |            |       |  4.95

Nlocal:        108.050 ave         124 max          93 min
Histogram: 3 1 3 7 7 8 3 4 1 3
Nghost:        641.150 ave         673 max         607 min
Histogram: 1 3 6 3 7 4 3 6 5 2
Neighs:        1572.20 ave        1855 max        1327 min
Histogram: 3 0 7 5 7 9 5 2 1 1
FullNghs:      3144.40 ave        3737 max        2623 min
Histogram: 2 1 4 6 7 10 7 1 1 1

Total # of neighbors = 125776
Ave neighs/atom = 29.101342
Neighbor list builds = 13081
Dangerous builds = 12805
unfix		1

variable	nst equal "step"
variable	temp equal 150
variable	e1 equal "pe"
variable	e2 equal "ke"
variable	e3 equal "etotal"

velocity 	all create 20 12345 mom yes rot no
fix		2 all nvt temp 20 ${temp} $(1000*dt)
fix		2 all nvt temp 20 150 $(1000*dt)
fix		2 all nvt temp 20 150 1
fix     	3 all print 1000 "${nst} ${temp} ${e1} ${e2} ${e3}" file eng_data.txt screen no

thermo 		1000
thermo_style 	custom step temp lx ly lz press pxx pyy pzz ke pe etotal

run 		40000 #Run for 40 picoseconds
Per MPI rank memory allocation (min/avg/max) = 8.727 | 8.743 | 8.765 Mbytes
Step Temp Lx Ly Lz Press Pxx Pyy Pzz KinEng PotEng TotEng 
    6968           20     20.14146     20.14146    120.84876     243.3705   -11340.994   -10863.067    22934.173    11.170662   -18861.988   -18850.818 
    7000    5.7255322     20.14146     20.14146    120.84876    1076.2489   -10541.959   -10034.505    23805.211    3.1978991    -18854.01   -18850.812 
    8000    12.877956     20.14146     20.14146    120.84876     750.6965   -10826.766   -10092.749    23171.604    7.1927643   -18857.014   -18849.821 
    9000    14.914249     20.14146     20.14146    120.84876    884.24899   -10107.826   -9605.3849    22365.958    8.3301015   -18856.508   -18848.178 
   10000    17.394496     20.14146     20.14146    120.84876    971.34769   -9797.2797   -9968.3997    22679.722    9.7154013   -18855.783   -18846.068 
   11000    19.797157     20.14146     20.14146    120.84876    970.35598   -9773.7475   -9632.8908    22317.706    11.057367   -18854.572   -18843.515 
   12000    23.439519     20.14146     20.14146    120.84876    1138.2002   -9689.7627   -9230.7138    22335.077    13.091747   -18853.585   -18840.493 
   13000    27.584613     20.14146     20.14146    120.84876    1356.2053   -9222.8117   -8686.6675    21978.095    15.406919   -18852.338   -18836.931 
   14000    31.078271     20.14146     20.14146    120.84876    1812.9467   -8732.6267   -8071.6361    22243.103    17.358243   -18850.277   -18832.918 
   15000    38.176703     20.14146     20.14146    120.84876     1891.714   -7830.1962   -7242.1627    20747.501    21.322952   -18849.777   -18828.454 
   16000    43.216531     20.14146     20.14146    120.84876    2200.8169     -6926.64   -6453.6788     19982.77    24.137863   -18847.975   -18823.837 
   17000    49.945469     20.14146     20.14146    120.84876    2440.5429   -6295.7082   -5944.8554    19562.192    27.896197   -18847.242   -18819.346 
   18000    54.567606     20.14146     20.14146    120.84876    2718.9709   -5835.6468   -5124.6593    19117.219    30.477813    -18845.71   -18815.233 
   19000    59.121381     20.14146     20.14146    120.84876    2891.0738   -5838.5857   -4846.1803    19357.987    33.021247   -18844.652    -18811.63 
   20000    63.318997     20.14146     20.14146    120.84876    3040.5616        -4894   -4467.3809    18483.066    35.365755   -18843.851   -18808.485 
   21000    64.985194     20.14146     20.14146    120.84876    3356.9399   -5108.0809   -4104.3033    19283.204    36.296381   -18841.913   -18805.616 
   22000    68.162004     20.14146     20.14146    120.84876    3403.4512   -4286.3758   -3842.7053    18339.435    38.070734   -18840.968   -18802.897 
   23000    71.702016     20.14146     20.14146    120.84876    3616.9406    -3929.816   -3669.0225     18449.66    40.047948   -18840.051   -18800.003 
   24000    74.138903     20.14146     20.14146    120.84876      3897.14   -3407.7174     -2936.45    18035.587     41.40903   -18838.111   -18796.702 
   25000    77.297059     20.14146     20.14146    120.84876    4154.7106   -3339.0445   -2549.1945    18352.371    43.172965   -18836.458   -18793.285 
   26000    82.443808     20.14146     20.14146    120.84876    4153.4094   -2778.1219   -2377.9256    17616.276    46.047594   -18835.955   -18789.908 
   27000    84.741197     20.14146     20.14146    120.84876    4490.5501   -2682.7601   -2238.7913    18393.202    47.330762   -18834.306   -18786.976 
   28000    86.582158     20.14146     20.14146    120.84876     5247.101   -1612.6937    -1435.157    18789.154       48.359   -18832.254   -18783.895 
   29000    89.993017     20.14146     20.14146    120.84876    4885.1329   -2041.4873   -1286.5925    17983.478    50.264077   -18830.714    -18780.45 
   30000    94.759765     20.14146     20.14146    120.84876    5378.8507   -1087.5907   -1435.8959    18660.039    52.926464   -18829.948   -18777.021 
   31000    98.576849     20.14146     20.14146    120.84876    5420.9275   -936.09283   -716.55939    17915.435    55.058432   -18828.981   -18773.923 
   32000    101.68464     20.14146     20.14146    120.84876    5415.6882   -313.30475   -191.32622    16751.696    56.794236   -18827.762   -18770.968 
   33000    105.62111     20.14146     20.14146    120.84876    5742.6544   -1140.4152    755.60246    17612.776    58.992885   -18827.076   -18768.084 
   34000    108.41924     20.14146     20.14146    120.84876    5922.3733   -518.78467    139.97203    18145.933    60.555735   -18825.757   -18765.202 
   35000    109.68561     20.14146     20.14146    120.84876    6247.9364    159.45599    521.93932    18062.414    61.263043   -18823.279   -18762.016 
   36000    113.45789     20.14146     20.14146    120.84876    6661.2445    402.29781    515.14576     19066.29    63.369985   -18821.646   -18758.276 
   37000    117.21187     20.14146     20.14146    120.84876    6638.9652       475.87    879.80985    18561.216    65.466705   -18819.778   -18754.312 
   38000    121.36491     20.14146     20.14146    120.84876    6787.4971    1023.8816    1487.5025    17851.107    67.786321   -18818.337   -18750.551 
   39000    123.29366     20.14146     20.14146    120.84876    7313.1179    961.24266    2564.5966    18413.515     68.86359   -18816.288   -18747.425 
   40000    124.50627     20.14146     20.14146    120.84876      7569.63    1598.9492    2505.9631    18603.978     69.54087   -18814.084   -18744.543 
   41000    129.70355     20.14146     20.14146    120.84876    7648.3152    1774.2623     2440.166    18730.517    72.443724   -18813.724    -18741.28 
   42000    135.08485     20.14146     20.14146    120.84876    7802.0815    2270.0677    3164.6756    17971.501    75.449361   -18813.001   -18737.552 
   43000    136.16691     20.14146     20.14146    120.84876    8299.3339    2947.5721    3062.7193     18887.71    76.053725    -18810.42   -18734.367 
   44000    142.03775     20.14146     20.14146    120.84876    8390.6867    2990.9645    3396.4765    18784.619    79.332781   -18810.999   -18731.666 
   45000     142.2512     20.14146     20.14146    120.84876    8347.4805    2734.3159    3342.7711    18965.355       79.452   -18808.104   -18728.652 
   46000    146.65315     20.14146     20.14146    120.84876    8765.3378    3634.5214    3750.9737    18910.518    81.910635    -18806.88    -18724.97 
   46968    149.33651     20.14146     20.14146    120.84876      9135.76    3679.7581    4539.9897    19187.532    83.409384   -18804.483   -18721.074 
Loop time of 70.086 on 40 procs for 40000 steps with 4322 atoms

Performance: 49.311 ns/day, 0.487 hours/ns, 570.727 timesteps/s
89.8% CPU use with 40 MPI tasks x no OpenMP threads

MPI task timing breakdown:
Section |  min time  |  avg time  |  max time  |%varavg| %total
---------------------------------------------------------------
Pair    | 56.991     | 59.404     | 63.091     |  17.4 | 84.76
Neigh   | 2.7416     | 3.0685     | 3.454      |   9.7 |  4.38
Comm    | 2.8798     | 5.2949     | 7.8299     |  53.8 |  7.55
Output  | 0.002201   | 0.0022339  | 0.0023757  |   0.1 |  0.00
Modify  | 0.36137    | 1.992      | 4.0415     |  95.1 |  2.84
Other   |            | 0.3243     |            |       |  0.46

Nlocal:        108.050 ave         123 max          94 min
Histogram: 1 3 5 9 6 2 4 5 3 2
Nghost:        639.750 ave         668 max         606 min
Histogram: 1 4 3 3 5 8 2 8 4 2
Neighs:        1584.65 ave        1876 max        1326 min
Histogram: 1 2 4 8 6 11 2 5 0 1
FullNghs:      3169.30 ave        3725 max        2665 min
Histogram: 2 1 5 7 6 9 4 2 3 1

Total # of neighbors = 126772
Ave neighs/atom = 29.331791
Neighbor list builds = 12457
Dangerous builds = 0
unfix		3
#unfix		2
# -----------------Store final cell length for strain calculations------------------------

variable 	tmp equal "lz"
variable 	Lz0 equal ${tmp}
variable 	Lz0 equal 120.848762886492
print 		"Initial Length, L0: ${Lz0}"
Initial Length, L0: 120.848762886492
variable	txA equal "lx*ly"
variable	xA equal ${txA}
variable	xA equal 405.678430310988

#-------------------------REGIONS & VARIABLES-----------------------------------------
variable 	bothi equal "v_Lz0/6"
variable	toplo equal "v_Lz0-v_bothi"
region		bottom block INF INF INF INF 0.0 ${bothi} units box
region		bottom block INF INF INF INF 0.0 20.141460481082 units box
region		top block INF INF INF INF ${toplo} INF units box
region		top block INF INF INF INF 100.70730240541 INF units box
region		middle block INF INF INF INF ${bothi} ${toplo} units box
region		middle block INF INF INF INF 20.141460481082 ${toplo} units box
region		middle block INF INF INF INF 20.141460481082 100.70730240541 units box

group		grest region bottom
737 atoms in group grest
group		gmove region top
705 atoms in group gmove
group 		mid region middle
2880 atoms in group mid
group		tempstat union grest mid
3617 atoms in group tempstat


variable 	srate equal 1e8
variable 	srate1 equal "v_srate / 1.0e12"
variable	vel equal "v_srate1*v_Lz0"

compute		midT mid temp
compute 	Fz grest property/atom fz
compute 	FZ grest reduce sum c_Fz

variable 	strain equal "(lz - v_Lz0)/v_Lz0"
variable 	p1 equal "v_strain"
variable 	p2 equal "-pxx/10000"
variable 	p3 equal "-pyy/10000"
variable 	p4 equal "-pzz/10000"
variable 	p5 equal "-c_FZ/v_xA*160.21766"
variable	mT equal "c_midT"

# ----------------------------DEFORMATION--------------------------------------------------
reset_timestep	0

thermo 		1000
thermo_style	custom step c_midT lz v_p1 v_p5 v_p2 v_p3 v_p4 press vol ke pe etotal

dump 	 	1 all custom 1000 dump.tensile id type x y z

fix		4 grest move linear 0 0 0 units box
#fix		4 gmove move linear 0 0 0.01 units box
fix		3 gmove deform 1 z vel 0.1 units box remap x
#fix		2 mid nvt temp ${temp} ${temp} $(1000*dt)
fix     	5 all print 1000 "${nst} ${mT} ${p1} ${p5} ${p4}" file tensile_data.txt screen no

run 		100000 #every 1 "velocity grest set 0 0 0"
WARNING: One or more atoms are time integrated more than once (../modify.cpp:285)
Per MPI rank memory allocation (min/avg/max) = 10.48 | 10.5 | 10.52 Mbytes
Step c_midT Lz v_p1 v_p5 v_p2 v_p3 v_p4 Press Volume KinEng PotEng TotEng 
       0    147.56453    120.84876 2.4694332e-15    1.6419834  -0.36797581  -0.45399897   -1.9187532      9135.76    49025.736    83.409384   -18804.483   -18721.074 
    1000    105.97884    120.94876 0.00082748054   0.46084533 0.00072650932 0.0082429029    -1.439599    4768.7654    49066.304    48.745442   -18823.495   -18774.749 
    2000    74.107542    121.04876 0.0016549611  0.019352076    0.3713986   0.33293293   -1.0526178    1160.9544    49106.872    34.392443   -18837.965   -18803.573 
    3000    54.688372    121.14876 0.0024824416  0.021436215     0.613595   0.57973663  -0.77103295   -1407.6623     49147.44    25.189312   -18846.646   -18821.457 
    4000     43.40684    121.24876 0.0033099222    0.8038878   0.82886598   0.77408487   -0.5027187   -3667.4405    49188.008    20.180196   -18852.698   -18832.518 
    5000    35.791376    121.34876 0.0041374027    0.7285198   0.98181986   0.92858616  -0.24990375   -5535.0076    49228.576     16.44776    -18855.68   -18839.232 
    6000    31.370292    121.44876 0.0049648833   0.10779444    1.1269356    1.0556461 -0.027418432   -7183.8778    49269.143    14.485375   -18857.489   -18843.003 
    7000    31.173115    121.54876 0.0057923638   0.31168208    1.2664242    1.1998923   0.18964557   -8853.2069    49309.711    14.353629   -18858.255   -18843.901 
    8000    33.124422    121.64876 0.0066198443   0.10809541    1.3495605    1.2888382   0.32546548   -9879.5472    49350.279    15.255592   -18856.608   -18841.352 
    9000    36.575031    121.74876 0.0074473249  -0.50119522    1.4562815    1.3791391   0.48855251    -11079.91    49390.847    16.848648   -18854.184   -18837.336 
   10000    40.669328    121.84876 0.0082748054  0.081722542    1.5486597    1.4588588   0.66368908   -12237.359    49431.415    18.803682   -18852.642   -18833.838 
   11000    43.352991    121.94876  0.009102286  -0.14571181    1.6716471    1.5706579   0.81106287   -13511.226    49471.983    20.009003    -18851.47   -18831.461 
   12000    43.789571    122.04876 0.0099297665  0.038261818    1.7567994    1.6781413   0.97632337   -14704.214    49512.551    19.971803   -18850.101    -18830.13 
   13000     44.80218    122.14876  0.010757247  -0.66347328    1.8736904    1.8168864    1.1573717   -16159.829    49553.118    20.690022   -18849.988   -18829.298 
   14000    45.693732    122.24876  0.011584728  -0.69596954    1.9717449    1.9093783    1.3088645   -17299.959    49593.686    20.901451   -18848.992   -18828.091 
   15000    46.928545    122.34876  0.012412208   0.14951747    2.0563585    2.0383396    1.4810249   -18585.743    49634.254     21.59295   -18847.413    -18825.82 
   16000     49.13124    122.44876  0.013239689  0.095457305    2.1806889    2.1287439    1.6031145   -19708.491    49674.822     22.69439   -18845.455   -18822.761 
   17000    52.141986    122.54876  0.014067169   0.29293578    2.2797687    2.2456501     1.754673   -20933.639     49715.39    24.171855    -18844.03   -18819.858 
   18000    53.349501    122.64876   0.01489465   -1.2529344    2.3841445    2.3280249    1.9738822   -22286.839    49755.958    24.542759   -18842.415   -18817.872 
   19000    53.372071    122.74876   0.01572213   0.33732749    2.4922861    2.4099364    2.0512256    -23178.16    49796.525    24.480589   -18840.983   -18816.502 
   20000     55.86545    122.84876  0.016549611   0.55546857    2.5336426    2.5434561    2.2964661    -24578.55    49837.093    25.575997   -18840.422   -18814.846 
   21000    56.161474    122.94876  0.017377091    1.0124289    2.6834057    2.6499773      2.42919   -25875.244    49877.661    26.288359   -18838.678    -18812.39 
   22000     59.32026    123.04876  0.018204572   0.49047784    2.7499211     2.784049    2.6184757    -27174.82    49918.229    27.458276   -18836.898    -18809.44 
   23000     59.66573    123.14876  0.019032053   -1.6458989    2.8932391    2.8318457    2.7359313   -28203.387    49958.797    27.748104   -18834.289    -18806.54 
   24000    62.171179    123.24876  0.019859533   -1.4571936      2.96364    2.8853697    2.9032475   -29174.191    49999.365    28.477042   -18832.463   -18803.986 
   25000    63.400532    123.34876  0.020687014   0.31019534    3.0639405    3.0402396    3.0347635   -30463.145    50039.933    29.369281   -18831.253   -18801.884 
   26000    64.299557    123.44876  0.021514494   -1.1151439    3.1438676    3.1120245    3.2490575   -31683.165      50080.5    29.682609   -18829.628   -18799.945 
   27000    65.151873    123.54876  0.022341975   0.70616658    3.2841899    3.2176768    3.3373705   -32797.457    50121.068     30.18188   -18827.737   -18797.555 
   28000    69.280928    123.64876  0.023169455   0.73167675    3.3639234    3.3206137    3.4989973   -33945.115    50161.636    32.171401   -18826.614   -18794.443 
   29000     70.67117    123.74876  0.023996936  -0.43548978    3.4110829    3.3995773    3.6409364   -34838.655    50202.204    32.615235   -18823.784   -18791.169 
   30000    70.631456    123.84876  0.024824416  -0.19758669    3.5561717    3.5275585    3.7465734   -36101.012    50242.772    32.935395   -18821.316   -18788.381 
   31000    71.806053    123.94876  0.025651897  -0.83975779    3.6493468    3.6179122    3.9435542   -37369.377     50283.34    33.390686    -18819.55   -18786.159 
   32000    74.501433    124.04876  0.026479377   0.14065914    3.7544528    3.7015753    4.0577993   -38379.425    50323.907    34.248558   -18818.086   -18783.838 
   33000    74.232307    124.14876  0.027306858  -0.41605693    3.8108195     3.787754    4.2176314    -39387.35    50364.475     34.39723   -18815.354   -18780.957 
   34000      77.9424    124.24876  0.028134338   -1.2205166    3.9158453    3.8987656    4.4001232    -40715.78    50405.043    36.039354   -18813.673   -18777.633 
   35000     78.99863    124.34876  0.028961819  -0.85582452    4.0036902    3.9698658    4.5105432   -41613.664    50445.611    36.603876   -18810.935   -18774.331 
   36000    80.623735    124.44876    0.0297893   0.41488556    4.1240452      4.01543    4.7083124   -42825.959    50486.179    37.368707   -18808.631   -18771.262 
   37000    80.497911    124.54876   0.03061678   0.31455203    4.1866776    4.2132264    4.7507319   -43835.453    50526.747    37.695967   -18806.156   -18768.461 
   38000    84.060125    124.64876  0.031444261   -1.6578677    4.2947958    4.2727751    4.9386761   -45020.823    50567.314    38.942354   -18804.697   -18765.755 
   39000    84.719114    124.74876  0.032271741  -0.84984559    4.3928771    4.3457532    5.1443724   -46276.676    50607.882     39.19218   -18802.121   -18762.928 
   40000    85.450641    124.84876  0.033099222  -0.67705107    4.4958516    4.4394846     5.280511   -47386.157     50648.45    39.509601   -18799.197   -18759.688 
   41000     87.99827    124.94876  0.033926702  -0.91159651    4.5947588    4.5126553    5.3916904   -48330.348    50689.018    40.812919   -18796.888   -18756.075 
   42000    90.131905    125.04876  0.034754183 -0.0092023768    4.6756838    4.6047583    5.5225212   -49343.211    50729.586    42.057382   -18794.532   -18752.474 
   43000    90.012808    125.14876  0.035581663   0.56607518    4.7301483     4.672516    5.6988762   -50338.468    50770.154    42.279454   -18791.566   -18749.287 
   44000    92.488287    125.24876  0.036409144    0.1024417    4.8492249    4.7419003    5.8131564   -51347.606    50810.722     43.12037   -18789.492   -18746.371 
   45000      94.2718    125.34876  0.037236624  -0.19271553     4.935062    4.8850167    5.9375064   -52525.283    50851.289    43.650076   -18786.882   -18743.232 
   46000    96.318843    125.44876  0.038064105    1.3658697    4.9886971    4.9482053    6.0756338   -53375.121    50891.857    44.806532   -18784.461   -18739.654 
   47000    98.566012    125.54876  0.038891586     1.335372    5.0728354    5.0198623    6.1833018   -54253.332    50932.425    45.362118   -18781.251   -18735.888 
   48000    99.741861    125.64876  0.039719066 -0.032607426    5.1597458    5.1174171     6.344103    -55404.22    50972.993    45.851049   -18778.023   -18732.172 
   49000    101.99189    125.74876  0.040546547  -0.32866632    5.2695247    5.2038005    6.5240703   -56657.985    51013.561    47.140555   -18775.742   -18728.601 
   50000    103.60226    125.84876  0.041374027   -0.1419949    5.3767244    5.2592953    6.6300443   -57553.547    51054.129    47.014398   -18772.153   -18725.138 
   51000    106.15172    125.94876  0.042201508   0.36110733    5.4355947    5.3705516    6.7088217   -58383.227    51094.696    48.451656   -18770.206   -18721.754 
   52000    105.17336    126.04876  0.043028988  -0.59629885    5.5407052    5.4361296    6.8526443   -59431.597    51135.264    48.178879    -18766.59   -18718.411 
   53000    105.95691    126.14876  0.043856469   0.28577363    5.5815704    5.4984292    7.0073821   -60291.272    51175.832    49.110549   -18763.879   -18714.769 
   54000     109.0551    126.24876  0.044683949    0.2515828    5.7119996    5.5722155    7.1256854   -61366.335      51216.4    50.515179   -18761.135    -18710.62 
   55000    110.75965    126.34876   0.04551143    1.4081056    5.7865129    5.6811463    7.2495588   -62390.726    51256.968    51.487014   -18757.882   -18706.395 
   56000    111.88054    126.44876   0.04633891    1.3617076    5.8518398    5.7557538     7.379028   -63288.739    51297.536    51.791202   -18754.437   -18702.645 
   57000     111.9405    126.54876  0.047166391   0.37401422    5.9551733    5.8301545    7.5065729   -64306.336    51338.103    51.845045    -18751.09   -18699.245 
   58000    113.55712    126.64876  0.047993872    1.1807955    6.0348643    5.9396488    7.6284474   -65343.202    51378.671     52.90297   -18748.515   -18695.612 
   59000    115.65808    126.74876  0.048821352    2.1415437     6.065439    6.0121346    7.7627439   -66134.392    51419.239    53.389674    -18744.83    -18691.44 
   60000    118.20427    126.84876  0.049648833   -1.0644464    6.2552173    6.0605031    7.8604183   -67253.795    51459.807    55.075194   -18742.156   -18687.081 
   61000    117.55659    126.94876  0.050476313  -0.39197722    6.3072558    6.1280451    7.9940889   -68097.966    51500.375    54.681902   -18737.601   -18682.919 
   62000    121.71208    127.04876  0.051303794   0.13386908    6.3805445    6.2687029    8.0932011   -69141.495    51540.943    56.272778   -18735.355   -18679.082 
   63000    124.48092    127.14876  0.052131274   0.97736129    6.4183154    6.2872235    8.2555567   -69870.319    51581.511     57.23158   -18732.462   -18675.231 
   64000    124.62378    127.24876  0.052958755  -0.84518461    6.5201551    6.4034037    8.3390146   -70875.245    51622.078    57.438449   -18728.746   -18671.308 
   65000    125.07873    127.34876  0.053786235   0.33712713    6.6036223    6.4466302    8.4795271   -71765.932    51662.646    58.378388   -18725.623   -18667.244 
   66000    123.91004    127.44876  0.054613716   -2.7737424     6.652796    6.5453663    8.5939836   -72640.486    51703.214    58.652904   -18721.476   -18662.823 
   67000    129.24424    127.54876  0.055441196   -1.4224269    6.7792411    6.6010199    8.6615365   -73472.658    51743.782    60.337206   -18718.463   -18658.126 
   68000    131.60214    127.64876  0.056268677  -0.23702606    6.8313579    6.6895015    8.8071387    -74426.66     51784.35    61.087853   -18714.684   -18653.596 
   69000    131.03168    127.74876  0.057096158   0.45319816    6.8915863     6.777611    8.8925199   -75205.724    51824.918     60.88188   -18710.425   -18649.543 
   70000    133.70352    127.84876  0.057923638  -0.41585514    6.9613742    6.8405393    9.1023441   -76347.525    51865.485    61.499389   -18707.328   -18645.829 
   71000    134.61879    127.94876  0.058751119  -0.61199187    7.0357929     6.903071    9.1535166   -76974.602    51906.053    62.599157   -18704.391   -18641.792 
   72000    137.09073    128.04876  0.059578599    1.0165996    7.1268321    7.0081141    9.3118688    -78156.05    51946.621    62.893993   -18699.788   -18636.894 
   73000    137.86033    128.14876   0.06040608   0.97886544    7.1489246     7.095648    9.4338445   -78928.057    51987.189    63.141147   -18694.692   -18631.551 
   74000    138.56936    128.24876   0.06123356    -1.331045    7.2679726    7.1281857    9.4454187   -79471.924    52027.757    64.408826   -18691.132   -18626.723 
   75000    144.04412    128.34876  0.062061041   0.49027826     7.359574    7.1859538      9.59728   -80476.026    52068.325    66.712731    -18689.55   -18622.837 
   76000    141.51853    128.44876  0.062888521   0.89530427    7.4642311    7.3134933    9.7076119   -81617.788    52108.893    66.010196   -18685.227   -18619.216 
   77000    144.13013    128.54876  0.063716002    1.1437271    7.5238542    7.4033631    9.8666633   -82646.269     52149.46    67.577321   -18682.627    -18615.05 
   78000    146.04074    128.64876  0.064543482  -0.92437696    7.5676361    7.4402588    10.014974   -83409.563    52190.028    68.046866   -18678.165   -18610.118 
   79000    145.07127    128.74876  0.065370963    0.3082522    7.6323081    7.5570798    10.052056   -84138.147    52230.596    68.036152   -18672.801   -18604.765 
   80000    149.46937    128.84876  0.066198443  -0.23786969    7.7372778    7.6276234    10.102879   -84892.599    52271.164    68.568718   -18668.131   -18599.562 
   81000    151.50254    128.94876  0.067025924    1.5487669    7.7666253    7.6777503    10.235721   -85600.321    52311.732    70.100013   -18665.065   -18594.965 
   82000    152.37504    129.04876  0.067853405   0.77153521    7.8810337    7.7988254    10.340494   -86734.509      52352.3    70.947577   -18661.765   -18590.817 
   83000    153.24783    129.14876  0.068680885   -1.4143415    7.9049805     7.835476     10.44988   -87301.121    52392.867    71.525744   -18658.301   -18586.775 
   84000    154.69497    129.24876  0.069508366   0.22553959    8.0168899    7.9064334    10.528157   -88171.601    52433.435    71.528054   -18653.897   -18582.369 
   85000    157.09891    129.34876  0.070335846   -1.0374015    8.0848419    8.0111134    10.651647   -89158.674    52474.003    72.370466   -18649.849   -18577.479 
   86000    158.41093    129.44876  0.071163327    0.2751844    8.1126861    8.0439287    10.762457   -89730.238    52514.571    72.929595   -18645.041   -18572.111 
   87000    161.84912    129.54876  0.071990807    1.4585874    8.2442506    8.1473922    10.867007   -90862.166    52555.139     74.76159   -18641.372    -18566.61 
   88000    167.24898    129.64876  0.072818288  -0.74380267    8.3624157    8.2560132    10.910816    -91764.15    52595.707    77.374039   -18639.133   -18561.759 
   89000     165.4134    129.74876  0.073645768  -0.64740926    8.3730517    8.2688907     11.01772   -92198.875    52636.274     75.92609    -18633.59   -18557.664 
   90000    166.21128    129.84876  0.074473249   0.74668034    8.4394159    8.3535893    11.106691   -92998.988    52676.842    76.627701   -18630.159   -18553.531 
   91000    166.93844    129.94876  0.075300729  0.057236664    8.5291153    8.4366975    11.204638   -93901.504     52717.41    77.009772   -18625.502   -18548.493 
   92000    169.81053    130.04876   0.07612821    0.6927787    8.5761607    8.5590474    11.352407   -94958.717    52757.978    78.495592   -18620.959   -18542.464 
   93000    169.22713    130.14876  0.076955691   0.18432407    8.6201631    8.5542093    11.419091   -95311.544    52798.546    78.537261   -18614.953   -18536.416 
   94000    174.91841    130.24876  0.077783171   0.29112525    8.7006985    8.6012799    11.484654   -95955.441    52839.114    81.017579   -18612.332   -18531.314 
   95000     175.9334    130.34876  0.078610652   0.18241063    8.8272718    8.6390051    11.571016   -96790.976    52879.682    81.115346   -18608.514   -18527.399 
   96000    173.46695    130.44876  0.079438132  -0.67184933    8.8283406    8.7400528    11.683285   -97505.594    52920.249     80.28636   -18603.831   -18523.544 
   97000    176.46515    130.54876  0.080265613    1.6707638    8.9475553    8.8311312    11.739781   -98394.892    52960.817    81.836868   -18600.569   -18518.732 
   98000     175.4802    130.64876  0.081093093 -0.0093792385    9.0159799    8.9112147    11.817066   -99147.536    53001.385    81.594943   -18594.269   -18512.674 
   99000    176.47921    130.74876  0.081920574    -2.900756    9.0716013    8.9518007    11.959923   -99944.416    53041.953    82.184969   -18588.356   -18506.171 
  100000     183.7191    130.84876  0.082748054    1.8640828    9.1050597    9.0573493    12.025809   -100627.39    53082.521    84.798018   -18585.111   -18500.313 
Loop time of 170.614 on 40 procs for 100000 steps with 4322 atoms

Performance: 50.641 ns/day, 0.474 hours/ns, 586.119 timesteps/s
90.3% CPU use with 40 MPI tasks x no OpenMP threads

MPI task timing breakdown:
Section |  min time  |  avg time  |  max time  |%varavg| %total
---------------------------------------------------------------
Pair    | 137.75     | 143.76     | 151.95     |  25.3 | 84.26
Neigh   | 7.2502     | 7.7435     | 9.1023     |  13.3 |  4.54
Comm    | 7.3047     | 13.076     | 17.397     |  64.9 |  7.66
Output  | 0.061571   | 0.061629   | 0.062031   |   0.0 |  0.04
Modify  | 1.824      | 4.9873     | 9.3103     | 118.9 |  2.92
Other   |            | 0.9836     |            |       |  0.58

Nlocal:        108.050 ave         129 max          95 min
Histogram: 4 4 8 9 2 6 3 3 0 1
Nghost:        614.150 ave         674 max         590 min
Histogram: 5 9 15 5 2 0 0 2 1 1
Neighs:        1524.83 ave        1917 max        1272 min
Histogram: 4 3 5 11 6 6 2 0 1 2
FullNghs:      3049.65 ave        3811 max        2529 min
Histogram: 1 5 8 10 5 6 2 0 1 2

Total # of neighbors = 121986
Ave neighs/atom = 28.224433
Neighbor list builds = 32119
Dangerous builds = 0
#run 		5000000 #every 1 "velocity grest set 0 0 0"

print 'All Done'
All Done
Total wall time: 0:04:27
